       512
 sample mdstep=                    0
Si    0.000000000000000E+00  0.000000000000000E+00  0.000000000000000E+00
Si    0.244287000000000E+01  0.244287000000000E+01  0.000000000000000E+00
Si    0.000000000000000E+00  0.244287000000000E+01  0.244287000000000E+01
Si    0.122143500000000E+01  0.122143500000000E+01  0.122143500000000E+01
Si    0.366430500000000E+01  0.122143500000000E+01  0.366430500000000E+01
Si    0.244287000000000E+01  0.000000000000000E+00  0.244287000000000E+01
Si    0.122143500000000E+01  0.366430500000000E+01  0.366430500000000E+01
Si    0.366430500000000E+01  0.366430500000000E+01  0.122143500000000E+01
Si    0.488574000000000E+01  0.000000000000000E+00  0.000000000000000E+00
Si    0.732861000000001E+01  0.244287000000000E+01  0.000000000000000E+00
Si    0.488574000000000E+01  0.244287000000000E+01  0.244287000000000E+01
Si    0.610717500000001E+01  0.122143500000000E+01  0.122143500000000E+01
Si    0.855004500000001E+01  0.122143500000000E+01  0.366430500000000E+01
Si    0.732861000000001E+01  0.000000000000000E+00  0.244287000000000E+01
Si    0.610717500000001E+01  0.366430500000000E+01  0.366430500000000E+01
Si    0.855004500000001E+01  0.366430500000000E+01  0.122143500000000E+01
Si    0.977148000000001E+01  0.000000000000000E+00  0.000000000000000E+00
Si    0.122143500000000E+02  0.244287000000000E+01  0.000000000000000E+00
Si    0.977148000000001E+01  0.244287000000000E+01  0.244287000000000E+01
Si    0.109929150000000E+02  0.122143500000000E+01  0.122143500000000E+01
Si    0.134357850000000E+02  0.122143500000000E+01  0.366430500000000E+01
Si    0.122143500000000E+02  0.000000000000000E+00  0.244287000000000E+01
Si    0.109929150000000E+02  0.366430500000000E+01  0.366430500000000E+01
Si    0.134357850000000E+02  0.366430500000000E+01  0.122143500000000E+01
Si    0.146572200000000E+02  0.000000000000000E+00  0.000000000000000E+00
Si    0.171000900000000E+02  0.244287000000000E+01  0.000000000000000E+00
Si    0.146572200000000E+02  0.244287000000000E+01  0.244287000000000E+01
Si    0.158786550000000E+02  0.122143500000000E+01  0.122143500000000E+01
Si    0.183215250000000E+02  0.122143500000000E+01  0.366430500000000E+01
Si    0.171000900000000E+02  0.000000000000000E+00  0.244287000000000E+01
Si    0.158786550000000E+02  0.366430500000000E+01  0.366430500000000E+01
Si    0.183215250000000E+02  0.366430500000000E+01  0.122143500000000E+01
Si    0.000000000000000E+00  0.488574000000000E+01  0.000000000000000E+00
Si    0.244287000000000E+01  0.732861000000001E+01  0.000000000000000E+00
Si    0.000000000000000E+00  0.732861000000001E+01  0.244287000000000E+01
Si    0.122143500000000E+01  0.610717500000001E+01  0.122143500000000E+01
Si    0.366430500000000E+01  0.610717500000001E+01  0.366430500000000E+01
Si    0.244287000000000E+01  0.488574000000000E+01  0.244287000000000E+01
Si    0.122143500000000E+01  0.855004500000001E+01  0.366430500000000E+01
Si    0.366430500000000E+01  0.855004500000001E+01  0.122143500000000E+01
Si    0.488574000000000E+01  0.488574000000000E+01  0.000000000000000E+00
Si    0.732861000000001E+01  0.732861000000001E+01  0.000000000000000E+00
Si    0.488574000000000E+01  0.732861000000001E+01  0.244287000000000E+01
Si    0.610717500000001E+01  0.610717500000001E+01  0.122143500000000E+01
Si    0.855004500000001E+01  0.610717500000001E+01  0.366430500000000E+01
Si    0.732861000000001E+01  0.488574000000000E+01  0.244287000000000E+01
Si    0.610717500000001E+01  0.855004500000001E+01  0.366430500000000E+01
Si    0.855004500000001E+01  0.855004500000001E+01  0.122143500000000E+01
Si    0.977148000000001E+01  0.488574000000000E+01  0.000000000000000E+00
Si    0.122143500000000E+02  0.732861000000001E+01  0.000000000000000E+00
Si    0.977148000000001E+01  0.732861000000001E+01  0.244287000000000E+01
Si    0.109929150000000E+02  0.610717500000001E+01  0.122143500000000E+01
Si    0.134357850000000E+02  0.610717500000001E+01  0.366430500000000E+01
Si    0.122143500000000E+02  0.488574000000000E+01  0.244287000000000E+01
Si    0.109929150000000E+02  0.855004500000001E+01  0.366430500000000E+01
Si    0.134357850000000E+02  0.855004500000001E+01  0.122143500000000E+01
Si    0.146572200000000E+02  0.488574000000000E+01  0.000000000000000E+00
Si    0.171000900000000E+02  0.732861000000001E+01  0.000000000000000E+00
Si    0.146572200000000E+02  0.732861000000001E+01  0.244287000000000E+01
Si    0.158786550000000E+02  0.610717500000001E+01  0.122143500000000E+01
Si    0.183215250000000E+02  0.610717500000001E+01  0.366430500000000E+01
Si    0.171000900000000E+02  0.488574000000000E+01  0.244287000000000E+01
Si    0.158786550000000E+02  0.855004500000001E+01  0.366430500000000E+01
Si    0.183215250000000E+02  0.855004500000001E+01  0.122143500000000E+01
Si    0.000000000000000E+00  0.977148000000001E+01  0.000000000000000E+00
Si    0.244287000000000E+01  0.122143500000000E+02  0.000000000000000E+00
Si    0.000000000000000E+00  0.122143500000000E+02  0.244287000000000E+01
Si    0.122143500000000E+01  0.109929150000000E+02  0.122143500000000E+01
Si    0.366430500000000E+01  0.109929150000000E+02  0.366430500000000E+01
Si    0.244287000000000E+01  0.977148000000001E+01  0.244287000000000E+01
Si    0.122143500000000E+01  0.134357850000000E+02  0.366430500000000E+01
Si    0.366430500000000E+01  0.134357850000000E+02  0.122143500000000E+01
Si    0.488574000000000E+01  0.977148000000001E+01  0.000000000000000E+00
Si    0.732861000000001E+01  0.122143500000000E+02  0.000000000000000E+00
Si    0.488574000000000E+01  0.122143500000000E+02  0.244287000000000E+01
Si    0.610717500000001E+01  0.109929150000000E+02  0.122143500000000E+01
Si    0.855004500000001E+01  0.109929150000000E+02  0.366430500000000E+01
Si    0.732861000000001E+01  0.977148000000001E+01  0.244287000000000E+01
Si    0.610717500000001E+01  0.134357850000000E+02  0.366430500000000E+01
Si    0.855004500000001E+01  0.134357850000000E+02  0.122143500000000E+01
Si    0.977148000000001E+01  0.977148000000001E+01  0.000000000000000E+00
Si    0.122143500000000E+02  0.122143500000000E+02  0.000000000000000E+00
Si    0.977148000000001E+01  0.122143500000000E+02  0.244287000000000E+01
Si    0.109929150000000E+02  0.109929150000000E+02  0.122143500000000E+01
Si    0.134357850000000E+02  0.109929150000000E+02  0.366430500000000E+01
Si    0.122143500000000E+02  0.977148000000001E+01  0.244287000000000E+01
Si    0.109929150000000E+02  0.134357850000000E+02  0.366430500000000E+01
Si    0.134357850000000E+02  0.134357850000000E+02  0.122143500000000E+01
Si    0.146572200000000E+02  0.977148000000001E+01  0.000000000000000E+00
Si    0.171000900000000E+02  0.122143500000000E+02  0.000000000000000E+00
Si    0.146572200000000E+02  0.122143500000000E+02  0.244287000000000E+01
Si    0.158786550000000E+02  0.109929150000000E+02  0.122143500000000E+01
Si    0.183215250000000E+02  0.109929150000000E+02  0.366430500000000E+01
Si    0.171000900000000E+02  0.977148000000001E+01  0.244287000000000E+01
Si    0.158786550000000E+02  0.134357850000000E+02  0.366430500000000E+01
Si    0.183215250000000E+02  0.134357850000000E+02  0.122143500000000E+01
Si    0.000000000000000E+00  0.146572200000000E+02  0.000000000000000E+00
Si    0.244287000000000E+01  0.171000900000000E+02  0.000000000000000E+00
Si    0.000000000000000E+00  0.171000900000000E+02  0.244287000000000E+01
Si    0.122143500000000E+01  0.158786550000000E+02  0.122143500000000E+01
Si    0.366430500000000E+01  0.158786550000000E+02  0.366430500000000E+01
Si    0.244287000000000E+01  0.146572200000000E+02  0.244287000000000E+01
Si    0.122143500000000E+01  0.183215250000000E+02  0.366430500000000E+01
Si    0.366430500000000E+01  0.183215250000000E+02  0.122143500000000E+01
Si    0.488574000000000E+01  0.146572200000000E+02  0.000000000000000E+00
Si    0.732861000000001E+01  0.171000900000000E+02  0.000000000000000E+00
Si    0.488574000000000E+01  0.171000900000000E+02  0.244287000000000E+01
Si    0.610717500000001E+01  0.158786550000000E+02  0.122143500000000E+01
Si    0.855004500000001E+01  0.158786550000000E+02  0.366430500000000E+01
Si    0.732861000000001E+01  0.146572200000000E+02  0.244287000000000E+01
Si    0.610717500000001E+01  0.183215250000000E+02  0.366430500000000E+01
Si    0.855004500000001E+01  0.183215250000000E+02  0.122143500000000E+01
Si    0.977148000000001E+01  0.146572200000000E+02  0.000000000000000E+00
Si    0.122143500000000E+02  0.171000900000000E+02  0.000000000000000E+00
Si    0.977148000000001E+01  0.171000900000000E+02  0.244287000000000E+01
Si    0.109929150000000E+02  0.158786550000000E+02  0.122143500000000E+01
Si    0.134357850000000E+02  0.158786550000000E+02  0.366430500000000E+01
Si    0.122143500000000E+02  0.146572200000000E+02  0.244287000000000E+01
Si    0.109929150000000E+02  0.183215250000000E+02  0.366430500000000E+01
Si    0.134357850000000E+02  0.183215250000000E+02  0.122143500000000E+01
Si    0.146572200000000E+02  0.146572200000000E+02  0.000000000000000E+00
Si    0.171000900000000E+02  0.171000900000000E+02  0.000000000000000E+00
Si    0.146572200000000E+02  0.171000900000000E+02  0.244287000000000E+01
Si    0.158786550000000E+02  0.158786550000000E+02  0.122143500000000E+01
Si    0.183215250000000E+02  0.158786550000000E+02  0.366430500000000E+01
Si    0.171000900000000E+02  0.146572200000000E+02  0.244287000000000E+01
Si    0.158786550000000E+02  0.183215250000000E+02  0.366430500000000E+01
Si    0.183215250000000E+02  0.183215250000000E+02  0.122143500000000E+01
Si    0.000000000000000E+00  0.000000000000000E+00  0.488574000000000E+01
Si    0.244287000000000E+01  0.244287000000000E+01  0.488574000000000E+01
Si    0.000000000000000E+00  0.244287000000000E+01  0.732861000000001E+01
Si    0.122143500000000E+01  0.122143500000000E+01  0.610717500000001E+01
Si    0.366430500000000E+01  0.122143500000000E+01  0.855004500000001E+01
Si    0.244287000000000E+01  0.000000000000000E+00  0.732861000000001E+01
Si    0.122143500000000E+01  0.366430500000000E+01  0.855004500000001E+01
Si    0.366430500000000E+01  0.366430500000000E+01  0.610717500000001E+01
Si    0.488574000000000E+01  0.000000000000000E+00  0.488574000000000E+01
Si    0.732861000000001E+01  0.244287000000000E+01  0.488574000000000E+01
Si    0.488574000000000E+01  0.244287000000000E+01  0.732861000000001E+01
Si    0.610717500000001E+01  0.122143500000000E+01  0.610717500000001E+01
Si    0.855004500000001E+01  0.122143500000000E+01  0.855004500000001E+01
Si    0.732861000000001E+01  0.000000000000000E+00  0.732861000000001E+01
Si    0.610717500000001E+01  0.366430500000000E+01  0.855004500000001E+01
Si    0.855004500000001E+01  0.366430500000000E+01  0.610717500000001E+01
Si    0.977148000000001E+01  0.000000000000000E+00  0.488574000000000E+01
Si    0.122143500000000E+02  0.244287000000000E+01  0.488574000000000E+01
Si    0.977148000000001E+01  0.244287000000000E+01  0.732861000000001E+01
Si    0.109929150000000E+02  0.122143500000000E+01  0.610717500000001E+01
Si    0.134357850000000E+02  0.122143500000000E+01  0.855004500000001E+01
Si    0.122143500000000E+02  0.000000000000000E+00  0.732861000000001E+01
Si    0.109929150000000E+02  0.366430500000000E+01  0.855004500000001E+01
Si    0.134357850000000E+02  0.366430500000000E+01  0.610717500000001E+01
Si    0.146572200000000E+02  0.000000000000000E+00  0.488574000000000E+01
Si    0.171000900000000E+02  0.244287000000000E+01  0.488574000000000E+01
Si    0.146572200000000E+02  0.244287000000000E+01  0.732861000000001E+01
Si    0.158786550000000E+02  0.122143500000000E+01  0.610717500000001E+01
Si    0.183215250000000E+02  0.122143500000000E+01  0.855004500000001E+01
Si    0.171000900000000E+02  0.000000000000000E+00  0.732861000000001E+01
Si    0.158786550000000E+02  0.366430500000000E+01  0.855004500000001E+01
Si    0.183215250000000E+02  0.366430500000000E+01  0.610717500000001E+01
Si    0.000000000000000E+00  0.488574000000000E+01  0.488574000000000E+01
Si    0.244287000000000E+01  0.732861000000001E+01  0.488574000000000E+01
Si    0.000000000000000E+00  0.732861000000001E+01  0.732861000000001E+01
Si    0.122143500000000E+01  0.610717500000001E+01  0.610717500000001E+01
Si    0.366430500000000E+01  0.610717500000001E+01  0.855004500000001E+01
Si    0.244287000000000E+01  0.488574000000000E+01  0.732861000000001E+01
Si    0.122143500000000E+01  0.855004500000001E+01  0.855004500000001E+01
Si    0.366430500000000E+01  0.855004500000001E+01  0.610717500000001E+01
Si    0.488574000000000E+01  0.488574000000000E+01  0.488574000000000E+01
Si    0.732861000000001E+01  0.732861000000001E+01  0.488574000000000E+01
Si    0.488574000000000E+01  0.732861000000001E+01  0.732861000000001E+01
Si    0.610717500000001E+01  0.610717500000001E+01  0.610717500000001E+01
Si    0.855004500000001E+01  0.610717500000001E+01  0.855004500000001E+01
Si    0.732861000000001E+01  0.488574000000000E+01  0.732861000000001E+01
Si    0.610717500000001E+01  0.855004500000001E+01  0.855004500000001E+01
Si    0.855004500000001E+01  0.855004500000001E+01  0.610717500000001E+01
Si    0.977148000000001E+01  0.488574000000000E+01  0.488574000000000E+01
Si    0.122143500000000E+02  0.732861000000001E+01  0.488574000000000E+01
Si    0.977148000000001E+01  0.732861000000001E+01  0.732861000000001E+01
Si    0.109929150000000E+02  0.610717500000001E+01  0.610717500000001E+01
Si    0.134357850000000E+02  0.610717500000001E+01  0.855004500000001E+01
Si    0.122143500000000E+02  0.488574000000000E+01  0.732861000000001E+01
Si    0.109929150000000E+02  0.855004500000001E+01  0.855004500000001E+01
Si    0.134357850000000E+02  0.855004500000001E+01  0.610717500000001E+01
Si    0.146572200000000E+02  0.488574000000000E+01  0.488574000000000E+01
Si    0.171000900000000E+02  0.732861000000001E+01  0.488574000000000E+01
Si    0.146572200000000E+02  0.732861000000001E+01  0.732861000000001E+01
Si    0.158786550000000E+02  0.610717500000001E+01  0.610717500000001E+01
Si    0.183215250000000E+02  0.610717500000001E+01  0.855004500000001E+01
Si    0.171000900000000E+02  0.488574000000000E+01  0.732861000000001E+01
Si    0.158786550000000E+02  0.855004500000001E+01  0.855004500000001E+01
Si    0.183215250000000E+02  0.855004500000001E+01  0.610717500000001E+01
Si    0.000000000000000E+00  0.977148000000001E+01  0.488574000000000E+01
Si    0.244287000000000E+01  0.122143500000000E+02  0.488574000000000E+01
Si    0.000000000000000E+00  0.122143500000000E+02  0.732861000000001E+01
Si    0.122143500000000E+01  0.109929150000000E+02  0.610717500000001E+01
Si    0.366430500000000E+01  0.109929150000000E+02  0.855004500000001E+01
Si    0.244287000000000E+01  0.977148000000001E+01  0.732861000000001E+01
Si    0.122143500000000E+01  0.134357850000000E+02  0.855004500000001E+01
Si    0.366430500000000E+01  0.134357850000000E+02  0.610717500000001E+01
Si    0.488574000000000E+01  0.977148000000001E+01  0.488574000000000E+01
Si    0.732861000000001E+01  0.122143500000000E+02  0.488574000000000E+01
Si    0.488574000000000E+01  0.122143500000000E+02  0.732861000000001E+01
Si    0.610717500000001E+01  0.109929150000000E+02  0.610717500000001E+01
Si    0.855004500000001E+01  0.109929150000000E+02  0.855004500000001E+01
Si    0.732861000000001E+01  0.977148000000001E+01  0.732861000000001E+01
Si    0.610717500000001E+01  0.134357850000000E+02  0.855004500000001E+01
Si    0.855004500000001E+01  0.134357850000000E+02  0.610717500000001E+01
Si    0.977148000000001E+01  0.977148000000001E+01  0.488574000000000E+01
Si    0.122143500000000E+02  0.122143500000000E+02  0.488574000000000E+01
Si    0.977148000000001E+01  0.122143500000000E+02  0.732861000000001E+01
Si    0.109929150000000E+02  0.109929150000000E+02  0.610717500000001E+01
Si    0.134357850000000E+02  0.109929150000000E+02  0.855004500000001E+01
Si    0.122143500000000E+02  0.977148000000001E+01  0.732861000000001E+01
Si    0.109929150000000E+02  0.134357850000000E+02  0.855004500000001E+01
Si    0.134357850000000E+02  0.134357850000000E+02  0.610717500000001E+01
Si    0.146572200000000E+02  0.977148000000001E+01  0.488574000000000E+01
Si    0.171000900000000E+02  0.122143500000000E+02  0.488574000000000E+01
Si    0.146572200000000E+02  0.122143500000000E+02  0.732861000000001E+01
Si    0.158786550000000E+02  0.109929150000000E+02  0.610717500000001E+01
Si    0.183215250000000E+02  0.109929150000000E+02  0.855004500000001E+01
Si    0.171000900000000E+02  0.977148000000001E+01  0.732861000000001E+01
Si    0.158786550000000E+02  0.134357850000000E+02  0.855004500000001E+01
Si    0.183215250000000E+02  0.134357850000000E+02  0.610717500000001E+01
Si    0.000000000000000E+00  0.146572200000000E+02  0.488574000000000E+01
Si    0.244287000000000E+01  0.171000900000000E+02  0.488574000000000E+01
Si    0.000000000000000E+00  0.171000900000000E+02  0.732861000000001E+01
Si    0.122143500000000E+01  0.158786550000000E+02  0.610717500000001E+01
Si    0.366430500000000E+01  0.158786550000000E+02  0.855004500000001E+01
Si    0.244287000000000E+01  0.146572200000000E+02  0.732861000000001E+01
Si    0.122143500000000E+01  0.183215250000000E+02  0.855004500000001E+01
Si    0.366430500000000E+01  0.183215250000000E+02  0.610717500000001E+01
Si    0.488574000000000E+01  0.146572200000000E+02  0.488574000000000E+01
Si    0.732861000000001E+01  0.171000900000000E+02  0.488574000000000E+01
Si    0.488574000000000E+01  0.171000900000000E+02  0.732861000000001E+01
Si    0.610717500000001E+01  0.158786550000000E+02  0.610717500000001E+01
Si    0.855004500000001E+01  0.158786550000000E+02  0.855004500000001E+01
Si    0.732861000000001E+01  0.146572200000000E+02  0.732861000000001E+01
Si    0.610717500000001E+01  0.183215250000000E+02  0.855004500000001E+01
Si    0.855004500000001E+01  0.183215250000000E+02  0.610717500000001E+01
Si    0.977148000000001E+01  0.146572200000000E+02  0.488574000000000E+01
Si    0.122143500000000E+02  0.171000900000000E+02  0.488574000000000E+01
Si    0.977148000000001E+01  0.171000900000000E+02  0.732861000000001E+01
Si    0.109929150000000E+02  0.158786550000000E+02  0.610717500000001E+01
Si    0.134357850000000E+02  0.158786550000000E+02  0.855004500000001E+01
Si    0.122143500000000E+02  0.146572200000000E+02  0.732861000000001E+01
Si    0.109929150000000E+02  0.183215250000000E+02  0.855004500000001E+01
Si    0.134357850000000E+02  0.183215250000000E+02  0.610717500000001E+01
Si    0.146572200000000E+02  0.146572200000000E+02  0.488574000000000E+01
Si    0.171000900000000E+02  0.171000900000000E+02  0.488574000000000E+01
Si    0.146572200000000E+02  0.171000900000000E+02  0.732861000000001E+01
Si    0.158786550000000E+02  0.158786550000000E+02  0.610717500000001E+01
Si    0.183215250000000E+02  0.158786550000000E+02  0.855004500000001E+01
Si    0.171000900000000E+02  0.146572200000000E+02  0.732861000000001E+01
Si    0.158786550000000E+02  0.183215250000000E+02  0.855004500000001E+01
Si    0.183215250000000E+02  0.183215250000000E+02  0.610717500000001E+01
Si    0.000000000000000E+00  0.000000000000000E+00  0.977148000000001E+01
Si    0.244287000000000E+01  0.244287000000000E+01  0.977148000000001E+01
Si    0.000000000000000E+00  0.244287000000000E+01  0.122143500000000E+02
Si    0.122143500000000E+01  0.122143500000000E+01  0.109929150000000E+02
Si    0.366430500000000E+01  0.122143500000000E+01  0.134357850000000E+02
Si    0.244287000000000E+01  0.000000000000000E+00  0.122143500000000E+02
Si    0.122143500000000E+01  0.366430500000000E+01  0.134357850000000E+02
Si    0.366430500000000E+01  0.366430500000000E+01  0.109929150000000E+02
Si    0.488574000000000E+01  0.000000000000000E+00  0.977148000000001E+01
Si    0.732861000000001E+01  0.244287000000000E+01  0.977148000000001E+01
Si    0.488574000000000E+01  0.244287000000000E+01  0.122143500000000E+02
Si    0.610717500000001E+01  0.122143500000000E+01  0.109929150000000E+02
Si    0.855004500000001E+01  0.122143500000000E+01  0.134357850000000E+02
Si    0.732861000000001E+01  0.000000000000000E+00  0.122143500000000E+02
Si    0.610717500000001E+01  0.366430500000000E+01  0.134357850000000E+02
Si    0.855004500000001E+01  0.366430500000000E+01  0.109929150000000E+02
Si    0.977148000000001E+01  0.000000000000000E+00  0.977148000000001E+01
Si    0.122143500000000E+02  0.244287000000000E+01  0.977148000000001E+01
Si    0.977148000000001E+01  0.244287000000000E+01  0.122143500000000E+02
Si    0.109929150000000E+02  0.122143500000000E+01  0.109929150000000E+02
Si    0.134357850000000E+02  0.122143500000000E+01  0.134357850000000E+02
Si    0.122143500000000E+02  0.000000000000000E+00  0.122143500000000E+02
Si    0.109929150000000E+02  0.366430500000000E+01  0.134357850000000E+02
Si    0.134357850000000E+02  0.366430500000000E+01  0.109929150000000E+02
Si    0.146572200000000E+02  0.000000000000000E+00  0.977148000000001E+01
Si    0.171000900000000E+02  0.244287000000000E+01  0.977148000000001E+01
Si    0.146572200000000E+02  0.244287000000000E+01  0.122143500000000E+02
Si    0.158786550000000E+02  0.122143500000000E+01  0.109929150000000E+02
Si    0.183215250000000E+02  0.122143500000000E+01  0.134357850000000E+02
Si    0.171000900000000E+02  0.000000000000000E+00  0.122143500000000E+02
Si    0.158786550000000E+02  0.366430500000000E+01  0.134357850000000E+02
Si    0.183215250000000E+02  0.366430500000000E+01  0.109929150000000E+02
Si    0.000000000000000E+00  0.488574000000000E+01  0.977148000000001E+01
Si    0.244287000000000E+01  0.732861000000001E+01  0.977148000000001E+01
Si    0.000000000000000E+00  0.732861000000001E+01  0.122143500000000E+02
Si    0.122143500000000E+01  0.610717500000001E+01  0.109929150000000E+02
Si    0.366430500000000E+01  0.610717500000001E+01  0.134357850000000E+02
Si    0.244287000000000E+01  0.488574000000000E+01  0.122143500000000E+02
Si    0.122143500000000E+01  0.855004500000001E+01  0.134357850000000E+02
Si    0.366430500000000E+01  0.855004500000001E+01  0.109929150000000E+02
Si    0.488574000000000E+01  0.488574000000000E+01  0.977148000000001E+01
Si    0.732861000000001E+01  0.732861000000001E+01  0.977148000000001E+01
Si    0.488574000000000E+01  0.732861000000001E+01  0.122143500000000E+02
Si    0.610717500000001E+01  0.610717500000001E+01  0.109929150000000E+02
Si    0.855004500000001E+01  0.610717500000001E+01  0.134357850000000E+02
Si    0.732861000000001E+01  0.488574000000000E+01  0.122143500000000E+02
Si    0.610717500000001E+01  0.855004500000001E+01  0.134357850000000E+02
Si    0.855004500000001E+01  0.855004500000001E+01  0.109929150000000E+02
Si    0.977148000000001E+01  0.488574000000000E+01  0.977148000000001E+01
Si    0.122143500000000E+02  0.732861000000001E+01  0.977148000000001E+01
Si    0.977148000000001E+01  0.732861000000001E+01  0.122143500000000E+02
Si    0.109929150000000E+02  0.610717500000001E+01  0.109929150000000E+02
Si    0.134357850000000E+02  0.610717500000001E+01  0.134357850000000E+02
Si    0.122143500000000E+02  0.488574000000000E+01  0.122143500000000E+02
Si    0.109929150000000E+02  0.855004500000001E+01  0.134357850000000E+02
Si    0.134357850000000E+02  0.855004500000001E+01  0.109929150000000E+02
Si    0.146572200000000E+02  0.488574000000000E+01  0.977148000000001E+01
Si    0.171000900000000E+02  0.732861000000001E+01  0.977148000000001E+01
Si    0.146572200000000E+02  0.732861000000001E+01  0.122143500000000E+02
Si    0.158786550000000E+02  0.610717500000001E+01  0.109929150000000E+02
Si    0.183215250000000E+02  0.610717500000001E+01  0.134357850000000E+02
Si    0.171000900000000E+02  0.488574000000000E+01  0.122143500000000E+02
Si    0.158786550000000E+02  0.855004500000001E+01  0.134357850000000E+02
Si    0.183215250000000E+02  0.855004500000001E+01  0.109929150000000E+02
Si    0.000000000000000E+00  0.977148000000001E+01  0.977148000000001E+01
Si    0.244287000000000E+01  0.122143500000000E+02  0.977148000000001E+01
Si    0.000000000000000E+00  0.122143500000000E+02  0.122143500000000E+02
Si    0.122143500000000E+01  0.109929150000000E+02  0.109929150000000E+02
Si    0.366430500000000E+01  0.109929150000000E+02  0.134357850000000E+02
Si    0.244287000000000E+01  0.977148000000001E+01  0.122143500000000E+02
Si    0.122143500000000E+01  0.134357850000000E+02  0.134357850000000E+02
Si    0.366430500000000E+01  0.134357850000000E+02  0.109929150000000E+02
Si    0.488574000000000E+01  0.977148000000001E+01  0.977148000000001E+01
Si    0.732861000000001E+01  0.122143500000000E+02  0.977148000000001E+01
Si    0.488574000000000E+01  0.122143500000000E+02  0.122143500000000E+02
Si    0.610717500000001E+01  0.109929150000000E+02  0.109929150000000E+02
Si    0.855004500000001E+01  0.109929150000000E+02  0.134357850000000E+02
Si    0.732861000000001E+01  0.977148000000001E+01  0.122143500000000E+02
Si    0.610717500000001E+01  0.134357850000000E+02  0.134357850000000E+02
Si    0.855004500000001E+01  0.134357850000000E+02  0.109929150000000E+02
Si    0.977148000000001E+01  0.977148000000001E+01  0.977148000000001E+01
Si    0.122143500000000E+02  0.122143500000000E+02  0.977148000000001E+01
Si    0.977148000000001E+01  0.122143500000000E+02  0.122143500000000E+02
Si    0.109929150000000E+02  0.109929150000000E+02  0.109929150000000E+02
Si    0.134357850000000E+02  0.109929150000000E+02  0.134357850000000E+02
Si    0.122143500000000E+02  0.977148000000001E+01  0.122143500000000E+02
Si    0.109929150000000E+02  0.134357850000000E+02  0.134357850000000E+02
Si    0.134357850000000E+02  0.134357850000000E+02  0.109929150000000E+02
Si    0.146572200000000E+02  0.977148000000001E+01  0.977148000000001E+01
Si    0.171000900000000E+02  0.122143500000000E+02  0.977148000000001E+01
Si    0.146572200000000E+02  0.122143500000000E+02  0.122143500000000E+02
Si    0.158786550000000E+02  0.109929150000000E+02  0.109929150000000E+02
Si    0.183215250000000E+02  0.109929150000000E+02  0.134357850000000E+02
Si    0.171000900000000E+02  0.977148000000001E+01  0.122143500000000E+02
Si    0.158786550000000E+02  0.134357850000000E+02  0.134357850000000E+02
Si    0.183215250000000E+02  0.134357850000000E+02  0.109929150000000E+02
Si    0.000000000000000E+00  0.146572200000000E+02  0.977148000000001E+01
Si    0.244287000000000E+01  0.171000900000000E+02  0.977148000000001E+01
Si    0.000000000000000E+00  0.171000900000000E+02  0.122143500000000E+02
Si    0.122143500000000E+01  0.158786550000000E+02  0.109929150000000E+02
Si    0.366430500000000E+01  0.158786550000000E+02  0.134357850000000E+02
Si    0.244287000000000E+01  0.146572200000000E+02  0.122143500000000E+02
Si    0.122143500000000E+01  0.183215250000000E+02  0.134357850000000E+02
Si    0.366430500000000E+01  0.183215250000000E+02  0.109929150000000E+02
Si    0.488574000000000E+01  0.146572200000000E+02  0.977148000000001E+01
Si    0.732861000000001E+01  0.171000900000000E+02  0.977148000000001E+01
Si    0.488574000000000E+01  0.171000900000000E+02  0.122143500000000E+02
Si    0.610717500000001E+01  0.158786550000000E+02  0.109929150000000E+02
Si    0.855004500000001E+01  0.158786550000000E+02  0.134357850000000E+02
Si    0.732861000000001E+01  0.146572200000000E+02  0.122143500000000E+02
Si    0.610717500000001E+01  0.183215250000000E+02  0.134357850000000E+02
Si    0.855004500000001E+01  0.183215250000000E+02  0.109929150000000E+02
Si    0.977148000000001E+01  0.146572200000000E+02  0.977148000000001E+01
Si    0.122143500000000E+02  0.171000900000000E+02  0.977148000000001E+01
Si    0.977148000000001E+01  0.171000900000000E+02  0.122143500000000E+02
Si    0.109929150000000E+02  0.158786550000000E+02  0.109929150000000E+02
Si    0.134357850000000E+02  0.158786550000000E+02  0.134357850000000E+02
Si    0.122143500000000E+02  0.146572200000000E+02  0.122143500000000E+02
Si    0.109929150000000E+02  0.183215250000000E+02  0.134357850000000E+02
Si    0.134357850000000E+02  0.183215250000000E+02  0.109929150000000E+02
Si    0.146572200000000E+02  0.146572200000000E+02  0.977148000000001E+01
Si    0.171000900000000E+02  0.171000900000000E+02  0.977148000000001E+01
Si    0.146572200000000E+02  0.171000900000000E+02  0.122143500000000E+02
Si    0.158786550000000E+02  0.158786550000000E+02  0.109929150000000E+02
Si    0.183215250000000E+02  0.158786550000000E+02  0.134357850000000E+02
Si    0.171000900000000E+02  0.146572200000000E+02  0.122143500000000E+02
Si    0.158786550000000E+02  0.183215250000000E+02  0.134357850000000E+02
Si    0.183215250000000E+02  0.183215250000000E+02  0.109929150000000E+02
Si    0.000000000000000E+00  0.000000000000000E+00  0.146572200000000E+02
Si    0.244287000000000E+01  0.244287000000000E+01  0.146572200000000E+02
Si    0.000000000000000E+00  0.244287000000000E+01  0.171000900000000E+02
Si    0.122143500000000E+01  0.122143500000000E+01  0.158786550000000E+02
Si    0.366430500000000E+01  0.122143500000000E+01  0.183215250000000E+02
Si    0.244287000000000E+01  0.000000000000000E+00  0.171000900000000E+02
Si    0.122143500000000E+01  0.366430500000000E+01  0.183215250000000E+02
Si    0.366430500000000E+01  0.366430500000000E+01  0.158786550000000E+02
Si    0.488574000000000E+01  0.000000000000000E+00  0.146572200000000E+02
Si    0.732861000000001E+01  0.244287000000000E+01  0.146572200000000E+02
Si    0.488574000000000E+01  0.244287000000000E+01  0.171000900000000E+02
Si    0.610717500000001E+01  0.122143500000000E+01  0.158786550000000E+02
Si    0.855004500000001E+01  0.122143500000000E+01  0.183215250000000E+02
Si    0.732861000000001E+01  0.000000000000000E+00  0.171000900000000E+02
Si    0.610717500000001E+01  0.366430500000000E+01  0.183215250000000E+02
Si    0.855004500000001E+01  0.366430500000000E+01  0.158786550000000E+02
Si    0.977148000000001E+01  0.000000000000000E+00  0.146572200000000E+02
Si    0.122143500000000E+02  0.244287000000000E+01  0.146572200000000E+02
Si    0.977148000000001E+01  0.244287000000000E+01  0.171000900000000E+02
Si    0.109929150000000E+02  0.122143500000000E+01  0.158786550000000E+02