        24
 benzene_dimer mdstep=                    0
C    -0.802754360000000E-02 -0.000000000000000E+00  0.000000000000000E+00
C     0.695986213600000E+00  0.121938767320000E+01  0.000000000000000E+00
C     0.695986213600000E+00 -0.121938767320000E+01  0.000000000000000E+00
C     0.210401378640000E+01  0.121938767320000E+01  0.000000000000000E+00
C     0.210401378640000E+01 -0.121938767320000E+01  0.000000000000000E+00
C     0.280802754360000E+01  0.000000000000000E+00  0.000000000000000E+00
H    -0.106834237290000E+01 -0.000000000000000E+00  0.000000000000000E+00
H     0.165828769900000E+00  0.213764724940000E+01  0.000000000000000E+00
H     0.165828769900000E+00 -0.213764724940000E+01  0.000000000000000E+00
H     0.263417123010000E+01  0.213764724940000E+01  0.000000000000000E+00
H     0.263417123010000E+01 -0.213764724940000E+01  0.000000000000000E+00
H     0.386834237290000E+01  0.000000000000000E+00  0.000000000000000E+00
C    -0.802754360000000E-02 -0.000000000000000E+00  0.200000000000000E+01
C     0.695986213600000E+00  0.121938767320000E+01  0.200000000000000E+01
C     0.695986213600000E+00 -0.121938767320000E+01  0.200000000000000E+01
C     0.210401378640000E+01  0.121938767320000E+01  0.200000000000000E+01
C     0.210401378640000E+01 -0.121938767320000E+01  0.200000000000000E+01
C     0.280802754360000E+01  0.000000000000000E+00  0.200000000000000E+01
H    -0.106834237290000E+01 -0.000000000000000E+00  0.200000000000000E+01
H     0.165828769900000E+00  0.213764724940000E+01  0.200000000000000E+01
H     0.165828769900000E+00 -0.213764724940000E+01  0.200000000000000E+01
H     0.263417123010000E+01  0.213764724940000E+01  0.200000000000000E+01
H     0.263417123010000E+01 -0.213764724940000E+01  0.200000000000000E+01
H     0.386834237290000E+01  0.000000000000000E+00  0.200000000000000E+01
        24
 benzene_dimer mdstep=                    1
C    -0.802754360000000E-02 -0.000000000000000E+00  0.000000000000000E+00
C     0.695986213600000E+00  0.121938767320000E+01  0.000000000000000E+00
C     0.695986213600000E+00 -0.121938767320000E+01  0.000000000000000E+00
C     0.210401378640000E+01  0.121938767320000E+01  0.000000000000000E+00
C     0.210401378640000E+01 -0.121938767320000E+01  0.000000000000000E+00
C     0.280802754360000E+01  0.000000000000000E+00  0.000000000000000E+00
H    -0.106834237290000E+01 -0.000000000000000E+00  0.000000000000000E+00
H     0.165828769900000E+00  0.213764724940000E+01  0.000000000000000E+00
H     0.165828769900000E+00 -0.213764724940000E+01  0.000000000000000E+00
H     0.263417123010000E+01  0.213764724940000E+01  0.000000000000000E+00
H     0.263417123010000E+01 -0.213764724940000E+01  0.000000000000000E+00
H     0.386834237290000E+01  0.000000000000000E+00  0.000000000000000E+00
C    -0.802754360000000E-02 -0.000000000000000E+00  0.210000000000000E+01
C     0.695986213600000E+00  0.121938767320000E+01  0.210000000000000E+01
C     0.695986213600000E+00 -0.121938767320000E+01  0.210000000000000E+01
C     0.210401378640000E+01  0.121938767320000E+01  0.210000000000000E+01
C     0.210401378640000E+01 -0.121938767320000E+01  0.210000000000000E+01
C     0.280802754360000E+01  0.000000000000000E+00  0.210000000000000E+01
H    -0.106834237290000E+01 -0.000000000000000E+00  0.210000000000000E+01
H     0.165828769900000E+00  0.213764724940000E+01  0.210000000000000E+01
H     0.165828769900000E+00 -0.213764724940000E+01  0.210000000000000E+01
H     0.263417123010000E+01  0.213764724940000E+01  0.210000000000000E+01
H     0.263417123010000E+01 -0.213764724940000E+01  0.210000000000000E+01
H     0.386834237290000E+01  0.000000000000000E+00  0.210000000000000E+01
        24
 benzene_dimer mdstep=                    2
C    -0.802754360000000E-02 -0.000000000000000E+00  0.000000000000000E+00
C     0.695986213600000E+00  0.121938767320000E+01  0.000000000000000E+00
C     0.695986213600000E+00 -0.121938767320000E+01  0.000000000000000E+00
C     0.210401378640000E+01  0.121938767320000E+01  0.000000000000000E+00
C     0.210401378640000E+01 -0.121938767320000E+01  0.000000000000000E+00
C     0.280802754360000E+01  0.000000000000000E+00  0.000000000000000E+00
H    -0.106834237290000E+01 -0.000000000000000E+00  0.000000000000000E+00
H     0.165828769900000E+00  0.213764724940000E+01  0.000000000000000E+00
H     0.165828769900000E+00 -0.213764724940000E+01  0.000000000000000E+00
H     0.263417123010000E+01  0.213764724940000E+01  0.000000000000000E+00
H     0.263417123010000E+01 -0.213764724940000E+01  0.000000000000000E+00
H     0.386834237290000E+01  0.000000000000000E+00  0.000000000000000E+00
C    -0.802754360000000E-02 -0.000000000000000E+00  0.220000000000000E+01
C     0.695986213600000E+00  0.121938767320000E+01  0.220000000000000E+01
C     0.695986213600000E+00 -0.121938767320000E+01  0.220000000000000E+01
C     0.210401378640000E+01  0.121938767320000E+01  0.220000000000000E+01
C     0.210401378640000E+01 -0.121938767320000E+01  0.220000000000000E+01
C     0.280802754360000E+01  0.000000000000000E+00  0.220000000000000E+01
H    -0.106834237290000E+01 -0.000000000000000E+00  0.220000000000000E+01
H     0.165828769900000E+00  0.213764724940000E+01  0.220000000000000E+01
H     0.165828769900000E+00 -0.213764724940000E+01  0.220000000000000E+01
H     0.263417123010000E+01  0.213764724940000E+01  0.220000000000000E+01
H     0.263417123010000E+01 -0.213764724940000E+01  0.220000000000000E+01
H     0.386834237290000E+01  0.000000000000000E+00  0.220000000000000E+01
        24
 benzene_dimer mdstep=                    3
C    -0.802754360000000E-02 -0.000000000000000E+00  0.000000000000000E+00
C     0.695986213600000E+00  0.121938767320000E+01  0.000000000000000E+00
C     0.695986213600000E+00 -0.121938767320000E+01  0.000000000000000E+00
C     0.210401378640000E+01  0.121938767320000E+01  0.000000000000000E+00
C     0.210401378640000E+01 -0.121938767320000E+01  0.000000000000000E+00
C     0.280802754360000E+01  0.000000000000000E+00  0.000000000000000E+00
H    -0.106834237290000E+01 -0.000000000000000E+00  0.000000000000000E+00
H     0.165828769900000E+00  0.213764724940000E+01  0.000000000000000E+00
H     0.165828769900000E+00 -0.213764724940000E+01  0.000000000000000E+00
H     0.263417123010000E+01  0.213764724940000E+01  0.000000000000000E+00
H     0.263417123010000E+01 -0.213764724940000E+01  0.000000000000000E+00
H     0.386834237290000E+01  0.000000000000000E+00  0.000000000000000E+00
C    -0.802754360000000E-02 -0.000000000000000E+00  0.230000000000000E+01
C     0.695986213600000E+00  0.121938767320000E+01  0.230000000000000E+01
C     0.695986213600000E+00 -0.121938767320000E+01  0.230000000000000E+01
C     0.210401378640000E+01  0.121938767320000E+01  0.230000000000000E+01
C     0.210401378640000E+01 -0.121938767320000E+01  0.230000000000000E+01
C     0.280802754360000E+01  0.000000000000000E+00  0.230000000000000E+01
H    -0.106834237290000E+01 -0.000000000000000E+00  0.230000000000000E+01
H     0.165828769900000E+00  0.213764724940000E+01  0.230000000000000E+01
H     0.165828769900000E+00 -0.213764724940000E+01  0.230000000000000E+01
H     0.263417123010000E+01  0.213764724940000E+01  0.230000000000000E+01
H     0.263417123010000E+01 -0.213764724940000E+01  0.230000000000000E+01
H     0.386834237290000E+01  0.000000000000000E+00  0.230000000000000E+01
        24
 benzene_dimer mdstep=                    4
C    -0.802754360000000E-02 -0.000000000000000E+00  0.000000000000000E+00
C     0.695986213600000E+00  0.121938767320000E+01  0.000000000000000E+00
C     0.695986213600000E+00 -0.121938767320000E+01  0.000000000000000E+00
C     0.210401378640000E+01  0.121938767320000E+01  0.000000000000000E+00
C     0.210401378640000E+01 -0.121938767320000E+01  0.000000000000000E+00
C     0.280802754360000E+01  0.000000000000000E+00  0.000000000000000E+00
H    -0.106834237290000E+01 -0.000000000000000E+00  0.000000000000000E+00
H     0.165828769900000E+00  0.213764724940000E+01  0.000000000000000E+00
H     0.165828769900000E+00 -0.213764724940000E+01  0.000000000000000E+00
H     0.263417123010000E+01  0.213764724940000E+01  0.000000000000000E+00
H     0.263417123010000E+01 -0.213764724940000E+01  0.000000000000000E+00
H     0.386834237290000E+01  0.000000000000000E+00  0.000000000000000E+00
C    -0.802754360000000E-02 -0.000000000000000E+00  0.240000000000000E+01
C     0.695986213600000E+00  0.121938767320000E+01  0.240000000000000E+01
C     0.695986213600000E+00 -0.121938767320000E+01  0.240000000000000E+01
C     0.210401378640000E+01  0.121938767320000E+01  0.240000000000000E+01
C     0.210401378640000E+01 -0.121938767320000E+01  0.240000000000000E+01
C     0.280802754360000E+01  0.000000000000000E+00  0.240000000000000E+01
H    -0.106834237290000E+01 -0.000000000000000E+00  0.240000000000000E+01
H     0.165828769900000E+00  0.213764724940000E+01  0.240000000000000E+01
H     0.165828769900000E+00 -0.213764724940000E+01  0.240000000000000E+01
H     0.263417123010000E+01  0.213764724940000E+01  0.240000000000000E+01
H     0.263417123010000E+01 -0.213764724940000E+01  0.240000000000000E+01
H     0.386834237290000E+01  0.000000000000000E+00  0.240000000000000E+01
        24
 benzene_dimer mdstep=                    5
C    -0.802754360000000E-02 -0.000000000000000E+00  0.000000000000000E+00
C     0.695986213600000E+00  0.121938767320000E+01  0.000000000000000E+00
C     0.695986213600000E+00 -0.121938767320000E+01  0.000000000000000E+00
C     0.210401378640000E+01  0.121938767320000E+01  0.000000000000000E+00
C     0.210401378640000E+01 -0.121938767320000E+01  0.000000000000000E+00
C     0.280802754360000E+01  0.000000000000000E+00  0.000000000000000E+00
H    -0.106834237290000E+01 -0.000000000000000E+00  0.000000000000000E+00
H     0.165828769900000E+00  0.213764724940000E+01  0.000000000000000E+00
H     0.165828769900000E+00 -0.213764724940000E+01  0.000000000000000E+00
H     0.263417123010000E+01  0.213764724940000E+01  0.000000000000000E+00
H     0.263417123010000E+01 -0.213764724940000E+01  0.000000000000000E+00
H     0.386834237290000E+01  0.000000000000000E+00  0.000000000000000E+00
C    -0.802754360000000E-02 -0.000000000000000E+00  0.250000000000000E+01
C     0.695986213600000E+00  0.121938767320000E+01  0.250000000000000E+01
C     0.695986213600000E+00 -0.121938767320000E+01  0.250000000000000E+01
C     0.210401378640000E+01  0.121938767320000E+01  0.250000000000000E+01
C     0.210401378640000E+01 -0.121938767320000E+01  0.250000000000000E+01
C     0.280802754360000E+01  0.000000000000000E+00  0.250000000000000E+01
H    -0.106834237290000E+01 -0.000000000000000E+00  0.250000000000000E+01
H     0.165828769900000E+00  0.213764724940000E+01  0.250000000000000E+01
H     0.165828769900000E+00 -0.213764724940000E+01  0.250000000000000E+01
H     0.263417123010000E+01  0.213764724940000E+01  0.250000000000000E+01
H     0.263417123010000E+01 -0.213764724940000E+01  0.250000000000000E+01
H     0.386834237290000E+01  0.000000000000000E+00  0.250000000000000E+01
        24
 benzene_dimer mdstep=                    6
C    -0.802754360000000E-02 -0.000000000000000E+00  0.000000000000000E+00
C     0.695986213600000E+00  0.121938767320000E+01  0.000000000000000E+00
C     0.695986213600000E+00 -0.121938767320000E+01  0.000000000000000E+00
C     0.210401378640000E+01  0.121938767320000E+01  0.000000000000000E+00
C     0.210401378640000E+01 -0.121938767320000E+01  0.000000000000000E+00
C     0.280802754360000E+01  0.000000000000000E+00  0.000000000000000E+00
H    -0.106834237290000E+01 -0.000000000000000E+00  0.000000000000000E+00
H     0.165828769900000E+00  0.213764724940000E+01  0.000000000000000E+00
H     0.165828769900000E+00 -0.213764724940000E+01  0.000000000000000E+00
H     0.263417123010000E+01  0.213764724940000E+01  0.000000000000000E+00
H     0.263417123010000E+01 -0.213764724940000E+01  0.000000000000000E+00
H     0.386834237290000E+01  0.000000000000000E+00  0.000000000000000E+00
C    -0.802754360000000E-02 -0.000000000000000E+00  0.260000000000000E+01
C     0.695986213600000E+00  0.121938767320000E+01  0.260000000000000E+01
C     0.695986213600000E+00 -0.121938767320000E+01  0.260000000000000E+01
C     0.210401378640000E+01  0.121938767320000E+01  0.260000000000000E+01
C     0.210401378640000E+01 -0.121938767320000E+01  0.260000000000000E+01
C     0.280802754360000E+01  0.000000000000000E+00  0.260000000000000E+01
H    -0.106834237290000E+01 -0.000000000000000E+00  0.260000000000000E+01
H     0.165828769900000E+00  0.213764724940000E+01  0.260000000000000E+01
H     0.165828769900000E+00 -0.213764724940000E+01  0.260000000000000E+01
H     0.263417123010000E+01  0.213764724940000E+01  0.260000000000000E+01
H     0.263417123010000E+01 -0.213764724940000E+01  0.260000000000000E+01
H     0.386834237290000E+01  0.000000000000000E+00  0.260000000000000E+01
        24
 benzene_dimer mdstep=                    7
C    -0.802754360000000E-02 -0.000000000000000E+00  0.000000000000000E+00
C     0.695986213600000E+00  0.121938767320000E+01  0.000000000000000E+00
C     0.695986213600000E+00 -0.121938767320000E+01  0.000000000000000E+00
C     0.210401378640000E+01  0.121938767320000E+01  0.000000000000000E+00
C     0.210401378640000E+01 -0.121938767320000E+01  0.000000000000000E+00
C     0.280802754360000E+01  0.000000000000000E+00  0.000000000000000E+00
H    -0.106834237290000E+01 -0.000000000000000E+00  0.000000000000000E+00
H     0.165828769900000E+00  0.213764724940000E+01  0.000000000000000E+00
H     0.165828769900000E+00 -0.213764724940000E+01  0.000000000000000E+00
H     0.263417123010000E+01  0.213764724940000E+01  0.000000000000000E+00
H     0.263417123010000E+01 -0.213764724940000E+01  0.000000000000000E+00
H     0.386834237290000E+01  0.000000000000000E+00  0.000000000000000E+00
C    -0.802754360000000E-02 -0.000000000000000E+00  0.270000000000000E+01
C     0.695986213600000E+00  0.121938767320000E+01  0.270000000000000E+01
C     0.695986213600000E+00 -0.121938767320000E+01  0.270000000000000E+01
C     0.210401378640000E+01  0.121938767320000E+01  0.270000000000000E+01
C     0.210401378640000E+01 -0.121938767320000E+01  0.270000000000000E+01
C     0.280802754360000E+01  0.000000000000000E+00  0.270000000000000E+01
H    -0.106834237290000E+01 -0.000000000000000E+00  0.270000000000000E+01
H     0.165828769900000E+00  0.213764724940000E+01  0.270000000000000E+01
H     0.165828769900000E+00 -0.213764724940000E+01  0.270000000000000E+01
H     0.263417123010000E+01  0.213764724940000E+01  0.270000000000000E+01
H     0.263417123010000E+01 -0.213764724940000E+01  0.270000000000000E+01
H     0.386834237290000E+01  0.000000000000000E+00  0.270000000000000E+01
        24
 benzene_dimer mdstep=                    8
C    -0.802754360000000E-02 -0.000000000000000E+00  0.000000000000000E+00
C     0.695986213600000E+00  0.121938767320000E+01  0.000000000000000E+00
C     0.695986213600000E+00 -0.121938767320000E+01  0.000000000000000E+00
C     0.210401378640000E+01  0.121938767320000E+01  0.000000000000000E+00
C     0.210401378640000E+01 -0.121938767320000E+01  0.000000000000000E+00
C     0.280802754360000E+01  0.000000000000000E+00  0.000000000000000E+00
H    -0.106834237290000E+01 -0.000000000000000E+00  0.000000000000000E+00
H     0.165828769900000E+00  0.213764724940000E+01  0.000000000000000E+00
H     0.165828769900000E+00 -0.213764724940000E+01  0.000000000000000E+00
H     0.263417123010000E+01  0.213764724940000E+01  0.000000000000000E+00
H     0.263417123010000E+01 -0.213764724940000E+01  0.000000000000000E+00
H     0.386834237290000E+01  0.000000000000000E+00  0.000000000000000E+00
C    -0.802754360000000E-02 -0.000000000000000E+00  0.280000000000000E+01
C     0.695986213600000E+00  0.121938767320000E+01  0.280000000000000E+01
C     0.695986213600000E+00 -0.121938767320000E+01  0.280000000000000E+01
C     0.210401378640000E+01  0.121938767320000E+01  0.280000000000000E+01
C     0.210401378640000E+01 -0.121938767320000E+01  0.280000000000000E+01
C     0.280802754360000E+01  0.000000000000000E+00  0.280000000000000E+01
H    -0.106834237290000E+01 -0.000000000000000E+00  0.280000000000000E+01
H     0.165828769900000E+00  0.213764724940000E+01  0.280000000000000E+01
H     0.165828769900000E+00 -0.213764724940000E+01  0.280000000000000E+01
H     0.263417123010000E+01  0.213764724940000E+01  0.280000000000000E+01
H     0.263417123010000E+01 -0.213764724940000E+01  0.280000000000000E+01
H     0.386834237290000E+01  0.000000000000000E+00  0.280000000000000E+01
        24
 benzene_dimer mdstep=                    9
C    -0.802754360000000E-02 -0.000000000000000E+00  0.000000000000000E+00
C     0.695986213600000E+00  0.121938767320000E+01  0.000000000000000E+00
C     0.695986213600000E+00 -0.121938767320000E+01  0.000000000000000E+00
C     0.210401378640000E+01  0.121938767320000E+01  0.000000000000000E+00
C     0.210401378640000E+01 -0.121938767320000E+01  0.000000000000000E+00
C     0.280802754360000E+01  0.000000000000000E+00  0.000000000000000E+00
H    -0.106834237290000E+01 -0.000000000000000E+00  0.000000000000000E+00
H     0.165828769900000E+00  0.213764724940000E+01  0.000000000000000E+00
H     0.165828769900000E+00 -0.213764724940000E+01  0.000000000000000E+00
H     0.263417123010000E+01  0.213764724940000E+01  0.000000000000000E+00
H     0.263417123010000E+01 -0.213764724940000E+01  0.000000000000000E+00
H     0.386834237290000E+01  0.000000000000000E+00  0.000000000000000E+00
C    -0.802754360000000E-02 -0.000000000000000E+00  0.290000000000000E+01
C     0.695986213600000E+00  0.121938767320000E+01  0.290000000000000E+01
C     0.695986213600000E+00 -0.121938767320000E+01  0.290000000000000E+01
C     0.210401378640000E+01  0.121938767320000E+01  0.290000000000000E+01
C     0.210401378640000E+01 -0.121938767320000E+01  0.290000000000000E+01
C     0.280802754360000E+01  0.000000000000000E+00  0.290000000000000E+01
H    -0.106834237290000E+01 -0.000000000000000E+00  0.290000000000000E+01
H     0.165828769900000E+00  0.213764724940000E+01  0.290000000000000E+01
H     0.165828769900000E+00 -0.213764724940000E+01  0.290000000000000E+01
H     0.263417123010000E+01  0.213764724940000E+01  0.290000000000000E+01
H     0.263417123010000E+01 -0.213764724940000E+01  0.290000000000000E+01
H     0.386834237290000E+01  0.000000000000000E+00  0.290000000000000E+01
        24
 benzene_dimer mdstep=                   10
C    -0.802754360000000E-02 -0.000000000000000E+00  0.000000000000000E+00
C     0.695986213600000E+00  0.121938767320000E+01  0.000000000000000E+00
C     0.695986213600000E+00 -0.121938767320000E+01  0.000000000000000E+00
C     0.210401378640000E+01  0.121938767320000E+01  0.000000000000000E+00
C     0.210401378640000E+01 -0.121938767320000E+01  0.000000000000000E+00
C     0.280802754360000E+01  0.000000000000000E+00  0.000000000000000E+00
H    -0.106834237290000E+01 -0.000000000000000E+00  0.000000000000000E+00
H     0.165828769900000E+00  0.213764724940000E+01  0.000000000000000E+00
H     0.165828769900000E+00 -0.213764724940000E+01  0.000000000000000E+00
H     0.263417123010000E+01  0.213764724940000E+01  0.000000000000000E+00
H     0.263417123010000E+01 -0.213764724940000E+01  0.000000000000000E+00
H     0.386834237290000E+01  0.000000000000000E+00  0.000000000000000E+00
C    -0.802754360000000E-02 -0.000000000000000E+00  0.300000000000000E+01
C     0.695986213600000E+00  0.121938767320000E+01  0.300000000000000E+01
C     0.695986213600000E+00 -0.121938767320000E+01  0.300000000000000E+01
C     0.210401378640000E+01  0.121938767320000E+01  0.300000000000000E+01
C     0.210401378640000E+01 -0.121938767320000E+01  0.300000000000000E+01
C     0.280802754360000E+01  0.000000000000000E+00  0.300000000000000E+01
H    -0.106834237290000E+01 -0.000000000000000E+00  0.300000000000000E+01
H     0.165828769900000E+00  0.213764724940000E+01  0.300000000000000E+01
H     0.165828769900000E+00 -0.213764724940000E+01  0.300000000000000E+01
H     0.263417123010000E+01  0.213764724940000E+01  0.300000000000000E+01
H     0.263417123010000E+01 -0.213764724940000E+01  0.300000000000000E+01
H     0.386834237290000E+01  0.000000000000000E+00  0.300000000000000E+01
        24
 benzene_dimer mdstep=                   11
C    -0.802754360000000E-02 -0.000000000000000E+00  0.000000000000000E+00
C     0.695986213600000E+00  0.121938767320000E+01  0.000000000000000E+00
C     0.695986213600000E+00 -0.121938767320000E+01  0.000000000000000E+00
C     0.210401378640000E+01  0.121938767320000E+01  0.000000000000000E+00
C     0.210401378640000E+01 -0.121938767320000E+01  0.000000000000000E+00
C     0.280802754360000E+01  0.000000000000000E+00  0.000000000000000E+00
H    -0.106834237290000E+01 -0.000000000000000E+00  0.000000000000000E+00
H     0.165828769900000E+00  0.213764724940000E+01  0.000000000000000E+00
H     0.165828769900000E+00 -0.213764724940000E+01  0.000000000000000E+00
H     0.263417123010000E+01  0.213764724940000E+01  0.000000000000000E+00
H     0.263417123010000E+01 -0.213764724940000E+01  0.000000000000000E+00
H     0.386834237290000E+01  0.000000000000000E+00  0.000000000000000E+00
C    -0.802754360000000E-02 -0.000000000000000E+00  0.310000000000000E+01
C     0.695986213600000E+00  0.121938767320000E+01  0.310000000000000E+01
C     0.695986213600000E+00 -0.121938767320000E+01  0.310000000000000E+01
C     0.210401378640000E+01  0.121938767320000E+01  0.310000000000000E+01
C     0.210401378640000E+01 -0.121938767320000E+01  0.310000000000000E+01
C     0.280802754360000E+01  0.000000000000000E+00  0.310000000000000E+01
H    -0.106834237290000E+01 -0.000000000000000E+00  0.310000000000000E+01
H     0.165828769900000E+00  0.213764724940000E+01  0.310000000000000E+01
H     0.165828769900000E+00 -0.213764724940000E+01  0.310000000000000E+01
H     0.263417123010000E+01  0.213764724940000E+01  0.310000000000000E+01
H     0.263417123010000E+01 -0.213764724940000E+01  0.310000000000000E+01
H     0.386834237290000E+01  0.000000000000000E+00  0.310000000000000E+01
        24
 benzene_dimer mdstep=                   12
C    -0.802754360000000E-02 -0.000000000000000E+00  0.000000000000000E+00
C     0.695986213600000E+00  0.121938767320000E+01  0.000000000000000E+00
C     0.695986213600000E+00 -0.121938767320000E+01  0.000000000000000E+00
C     0.210401378640000E+01  0.121938767320000E+01  0.000000000000000E+00
C     0.210401378640000E+01 -0.121938767320000E+01  0.000000000000000E+00
C     0.280802754360000E+01  0.000000000000000E+00  0.000000000000000E+00
H    -0.106834237290000E+01 -0.000000000000000E+00  0.000000000000000E+00
H     0.165828769900000E+00  0.213764724940000E+01  0.000000000000000E+00
H     0.165828769900000E+00 -0.213764724940000E+01  0.000000000000000E+00
H     0.263417123010000E+01  0.213764724940000E+01  0.000000000000000E+00
H     0.263417123010000E+01 -0.213764724940000E+01  0.000000000000000E+00
H     0.386834237290000E+01  0.000000000000000E+00  0.000000000000000E+00
C    -0.802754360000000E-02 -0.000000000000000E+00  0.320000000000000E+01
C     0.695986213600000E+00  0.121938767320000E+01  0.320000000000000E+01
C     0.695986213600000E+00 -0.121938767320000E+01  0.320000000000000E+01
C     0.210401378640000E+01  0.121938767320000E+01  0.320000000000000E+01
C     0.210401378640000E+01 -0.121938767320000E+01  0.320000000000000E+01
C     0.280802754360000E+01  0.000000000000000E+00  0.320000000000000E+01
H    -0.106834237290000E+01 -0.000000000000000E+00  0.320000000000000E+01
H     0.165828769900000E+00  0.213764724940000E+01  0.320000000000000E+01
H     0.165828769900000E+00 -0.213764724940000E+01  0.320000000000000E+01
H     0.263417123010000E+01  0.213764724940000E+01  0.320000000000000E+01
H     0.263417123010000E+01 -0.213764724940000E+01  0.320000000000000E+01
H     0.386834237290000E+01  0.000000000000000E+00  0.320000000000000E+01
        24
 benzene_dimer mdstep=                   13
C    -0.802754360000000E-02 -0.000000000000000E+00  0.000000000000000E+00
C     0.695986213600000E+00  0.121938767320000E+01  0.000000000000000E+00
C     0.695986213600000E+00 -0.121938767320000E+01  0.000000000000000E+00
C     0.210401378640000E+01  0.121938767320000E+01  0.000000000000000E+00
C     0.210401378640000E+01 -0.121938767320000E+01  0.000000000000000E+00
C     0.280802754360000E+01  0.000000000000000E+00  0.000000000000000E+00
H    -0.106834237290000E+01 -0.000000000000000E+00  0.000000000000000E+00
H     0.165828769900000E+00  0.213764724940000E+01  0.000000000000000E+00
H     0.165828769900000E+00 -0.213764724940000E+01  0.000000000000000E+00
H     0.263417123010000E+01  0.213764724940000E+01  0.000000000000000E+00
H     0.263417123010000E+01 -0.213764724940000E+01  0.000000000000000E+00
H     0.386834237290000E+01  0.000000000000000E+00  0.000000000000000E+00
C    -0.802754360000000E-02 -0.000000000000000E+00  0.330000000000000E+01
C     0.695986213600000E+00  0.121938767320000E+01  0.330000000000000E+01
C     0.695986213600000E+00 -0.121938767320000E+01  0.330000000000000E+01
C     0.210401378640000E+01  0.121938767320000E+01  0.330000000000000E+01
C     0.210401378640000E+01 -0.121938767320000E+01  0.330000000000000E+01
C     0.280802754360000E+01  0.000000000000000E+00  0.330000000000000E+01
H    -0.106834237290000E+01 -0.000000000000000E+00  0.330000000000000E+01
H     0.165828769900000E+00  0.213764724940000E+01  0.330000000000000E+01
H     0.165828769900000E+00 -0.213764724940000E+01  0.330000000000000E+01
H     0.263417123010000E+01  0.213764724940000E+01  0.330000000000000E+01
H     0.263417123010000E+01 -0.213764724940000E+01  0.330000000000000E+01
H     0.386834237290000E+01  0.000000000000000E+00  0.330000000000000E+01
        24
 benzene_dimer mdstep=                   14
C    -0.802754360000000E-02 -0.000000000000000E+00  0.000000000000000E+00
C     0.695986213600000E+00  0.121938767320000E+01  0.000000000000000E+00
C     0.695986213600000E+00 -0.121938767320000E+01  0.000000000000000E+00
C     0.210401378640000E+01  0.121938767320000E+01  0.000000000000000E+00
C     0.210401378640000E+01 -0.121938767320000E+01  0.000000000000000E+00
C     0.280802754360000E+01  0.000000000000000E+00  0.000000000000000E+00
H    -0.106834237290000E+01 -0.000000000000000E+00  0.000000000000000E+00
H     0.165828769900000E+00  0.213764724940000E+01  0.000000000000000E+00
H     0.165828769900000E+00 -0.213764724940000E+01  0.000000000000000E+00
H     0.263417123010000E+01  0.213764724940000E+01  0.000000000000000E+00
H     0.263417123010000E+01 -0.213764724940000E+01  0.000000000000000E+00
H     0.386834237290000E+01  0.000000000000000E+00  0.000000000000000E+00
C    -0.802754360000000E-02 -0.000000000000000E+00  0.340000000000000E+01
C     0.695986213600000E+00  0.121938767320000E+01  0.340000000000000E+01
C     0.695986213600000E+00 -0.121938767320000E+01  0.340000000000000E+01
C     0.210401378640000E+01  0.121938767320000E+01  0.340000000000000E+01
C     0.210401378640000E+01 -0.121938767320000E+01  0.340000000000000E+01
C     0.280802754360000E+01  0.000000000000000E+00  0.340000000000000E+01
H    -0.106834237290000E+01 -0.000000000000000E+00  0.340000000000000E+01
H     0.165828769900000E+00  0.213764724940000E+01  0.340000000000000E+01
H     0.165828769900000E+00 -0.213764724940000E+01  0.340000000000000E+01
H     0.263417123010000E+01  0.213764724940000E+01  0.340000000000000E+01
H     0.263417123010000E+01 -0.213764724940000E+01  0.340000000000000E+01
H     0.386834237290000E+01  0.000000000000000E+00  0.340000000000000E+01
        24
 benzene_dimer mdstep=                   15
C    -0.802754360000000E-02 -0.000000000000000E+00  0.000000000000000E+00
C     0.695986213600000E+00  0.121938767320000E+01  0.000000000000000E+00
C     0.695986213600000E+00 -0.121938767320000E+01  0.000000000000000E+00
C     0.210401378640000E+01  0.121938767320000E+01  0.000000000000000E+00
C     0.210401378640000E+01 -0.121938767320000E+01  0.000000000000000E+00
C     0.280802754360000E+01  0.000000000000000E+00  0.000000000000000E+00
H    -0.106834237290000E+01 -0.000000000000000E+00  0.000000000000000E+00
H     0.165828769900000E+00  0.213764724940000E+01  0.000000000000000E+00
H     0.165828769900000E+00 -0.213764724940000E+01  0.000000000000000E+00
H     0.263417123010000E+01  0.213764724940000E+01  0.000000000000000E+00
H     0.263417123010000E+01 -0.213764724940000E+01  0.000000000000000E+00
H     0.386834237290000E+01  0.000000000000000E+00  0.000000000000000E+00
C    -0.802754360000000E-02 -0.000000000000000E+00  0.350000000000000E+01
C     0.695986213600000E+00  0.121938767320000E+01  0.350000000000000E+01
C     0.695986213600000E+00 -0.121938767320000E+01  0.350000000000000E+01
C     0.210401378640000E+01  0.121938767320000E+01  0.350000000000000E+01
C     0.210401378640000E+01 -0.121938767320000E+01  0.350000000000000E+01
C     0.280802754360000E+01  0.000000000000000E+00  0.350000000000000E+01
H    -0.106834237290000E+01 -0.000000000000000E+00  0.350000000000000E+01
H     0.165828769900000E+00  0.213764724940000E+01  0.350000000000000E+01
H     0.165828769900000E+00 -0.213764724940000E+01  0.350000000000000E+01
H     0.263417123010000E+01  0.213764724940000E+01  0.350000000000000E+01
H     0.263417123010000E+01 -0.213764724940000E+01  0.350000000000000E+01
H     0.386834237290000E+01  0.000000000000000E+00  0.350000000000000E+01
        24
 benzene_dimer mdstep=                   16
C    -0.802754360000000E-02 -0.000000000000000E+00  0.000000000000000E+00
C     0.695986213600000E+00  0.121938767320000E+01  0.000000000000000E+00
C     0.695986213600000E+00 -0.121938767320000E+01  0.000000000000000E+00
C     0.210401378640000E+01  0.121938767320000E+01  0.000000000000000E+00
C     0.210401378640000E+01 -0.121938767320000E+01  0.000000000000000E+00
C     0.280802754360000E+01  0.000000000000000E+00  0.000000000000000E+00
H    -0.106834237290000E+01 -0.000000000000000E+00  0.000000000000000E+00
H     0.165828769900000E+00  0.213764724940000E+01  0.000000000000000E+00