       100
 CNT mdstep=                    0
C    -0.138000000000000E+01  0.310000000000001E+01 -0.491000000000000E+01
C    -0.700000000000002E+00  0.332000000000001E+01 -0.368000000000000E+01
C    -0.337000000000001E+01 -0.350000000000001E+00 -0.491000000000000E+01
C    -0.337000000000001E+01  0.350000000000001E+00 -0.368000000000000E+01
C    -0.294000000000001E+01  0.170000000000000E+01 -0.368000000000000E+01
C    -0.252000000000001E+01  0.227000000000001E+01 -0.491000000000000E+01
C    -0.700000000000002E+00 -0.332000000000001E+01 -0.491000000000000E+01
C    -0.138000000000000E+01 -0.310000000000001E+01 -0.368000000000000E+01
C    -0.252000000000001E+01 -0.227000000000001E+01 -0.368000000000000E+01
C    -0.294000000000001E+01 -0.169000000000000E+01 -0.491000000000000E+01
C     0.294000000000001E+01 -0.169000000000000E+01 -0.491000000000000E+01
C     0.252000000000001E+01 -0.227000000000001E+01 -0.368000000000000E+01
C     0.138000000000000E+01 -0.310000000000001E+01 -0.368000000000000E+01
C     0.700000000000002E+00 -0.332000000000001E+01 -0.491000000000000E+01
C     0.252000000000001E+01  0.227000000000001E+01 -0.491000000000000E+01
C     0.294000000000001E+01  0.170000000000000E+01 -0.368000000000000E+01
C     0.337000000000001E+01  0.350000000000001E+00 -0.368000000000000E+01
C     0.337000000000001E+01 -0.350000000000001E+00 -0.491000000000000E+01
C     0.700000000000002E+00  0.332000000000001E+01 -0.368000000000000E+01
C     0.138000000000000E+01  0.310000000000001E+01 -0.491000000000000E+01
C    -0.138000000000000E+01  0.310000000000001E+01 -0.244999999999999E+01
C    -0.700000000000002E+00  0.332000000000001E+01 -0.122000000000000E+01
C    -0.337000000000001E+01 -0.350000000000001E+00 -0.244999999999999E+01
C    -0.337000000000001E+01  0.350000000000001E+00 -0.122000000000000E+01
C    -0.294000000000001E+01  0.170000000000000E+01 -0.122000000000000E+01
C    -0.252000000000001E+01  0.227000000000001E+01 -0.244999999999999E+01
C    -0.700000000000002E+00 -0.332000000000001E+01 -0.244999999999999E+01
C    -0.138000000000000E+01 -0.310000000000001E+01 -0.122000000000000E+01
C    -0.252000000000001E+01 -0.227000000000001E+01 -0.122000000000000E+01
C    -0.294000000000001E+01 -0.169000000000000E+01 -0.244999999999999E+01
C     0.294000000000001E+01 -0.169000000000000E+01 -0.244999999999999E+01
C     0.252000000000001E+01 -0.227000000000001E+01 -0.122000000000000E+01
C     0.138000000000000E+01 -0.310000000000001E+01 -0.122000000000000E+01
C     0.700000000000002E+00 -0.332000000000001E+01 -0.244999999999999E+01
C     0.252000000000001E+01  0.227000000000001E+01 -0.244999999999999E+01
C     0.294000000000001E+01  0.170000000000000E+01 -0.122000000000000E+01
C     0.337000000000001E+01  0.350000000000001E+00 -0.122000000000000E+01
C     0.337000000000001E+01 -0.350000000000001E+00 -0.244999999999999E+01
C     0.700000000000002E+00  0.332000000000001E+01 -0.122000000000000E+01
C     0.138000000000000E+01  0.310000000000001E+01 -0.244999999999999E+01
C    -0.138000000000000E+01  0.310000000000001E+01  0.000000000000000E+00
C    -0.700000000000002E+00  0.332000000000001E+01  0.123000000000000E+01
C    -0.337000000000001E+01 -0.350000000000001E+00  0.000000000000000E+00
C    -0.337000000000001E+01  0.350000000000001E+00  0.123000000000000E+01
C    -0.294000000000001E+01  0.170000000000000E+01  0.123000000000000E+01
C    -0.252000000000001E+01  0.227000000000001E+01  0.000000000000000E+00
C    -0.700000000000002E+00 -0.332000000000001E+01  0.000000000000000E+00
C    -0.138000000000000E+01 -0.310000000000001E+01  0.123000000000000E+01
C    -0.252000000000001E+01 -0.227000000000001E+01  0.123000000000000E+01
C    -0.294000000000001E+01 -0.169000000000000E+01  0.000000000000000E+00
C     0.294000000000001E+01 -0.169000000000000E+01  0.000000000000000E+00
C     0.252000000000001E+01 -0.227000000000001E+01  0.123000000000000E+01
C     0.138000000000000E+01 -0.310000000000001E+01  0.123000000000000E+01
C     0.700000000000002E+00 -0.332000000000001E+01  0.000000000000000E+00
C     0.252000000000001E+01  0.227000000000001E+01  0.000000000000000E+00
C     0.294000000000001E+01  0.170000000000000E+01  0.123000000000000E+01
C     0.337000000000001E+01  0.350000000000001E+00  0.123000000000000E+01
C     0.337000000000001E+01 -0.350000000000001E+00  0.000000000000000E+00
C     0.700000000000002E+00  0.332000000000001E+01  0.123000000000000E+01
C     0.138000000000000E+01  0.310000000000001E+01  0.000000000000000E+00
C    -0.138000000000000E+01  0.310000000000001E+01  0.245999999999999E+01
C    -0.700000000000002E+00  0.332000000000001E+01  0.369000000000000E+01
C    -0.337000000000001E+01 -0.350000000000001E+00  0.245999999999999E+01
C    -0.337000000000001E+01  0.350000000000001E+00  0.369000000000000E+01
C    -0.294000000000001E+01  0.170000000000000E+01  0.369000000000000E+01
C    -0.252000000000001E+01  0.227000000000001E+01  0.245999999999999E+01
C    -0.700000000000002E+00 -0.332000000000001E+01  0.245999999999999E+01
C    -0.138000000000000E+01 -0.310000000000001E+01  0.369000000000000E+01
C    -0.252000000000001E+01 -0.227000000000001E+01  0.369000000000000E+01
C    -0.294000000000001E+01 -0.169000000000000E+01  0.245999999999999E+01
C     0.294000000000001E+01 -0.169000000000000E+01  0.245999999999999E+01
C     0.252000000000001E+01 -0.227000000000001E+01  0.369000000000000E+01
C     0.138000000000000E+01 -0.310000000000001E+01  0.369000000000000E+01
C     0.700000000000002E+00 -0.332000000000001E+01  0.245999999999999E+01
C     0.252000000000001E+01  0.227000000000001E+01  0.245999999999999E+01
C     0.294000000000001E+01  0.170000000000000E+01  0.369000000000000E+01
C     0.337000000000001E+01  0.350000000000001E+00  0.369000000000000E+01
C     0.337000000000001E+01 -0.350000000000001E+00  0.245999999999999E+01
C     0.700000000000002E+00  0.332000000000001E+01  0.369000000000000E+01
C     0.138000000000000E+01  0.310000000000001E+01  0.245999999999999E+01
C    -0.138000000000000E+01  0.310000000000001E+01  0.492000000000000E+01
C    -0.700000000000002E+00  0.332000000000001E+01  0.614999999999999E+01
C    -0.337000000000001E+01 -0.350000000000001E+00  0.492000000000000E+01
C    -0.337000000000001E+01  0.350000000000001E+00  0.614999999999999E+01
C    -0.294000000000001E+01  0.170000000000000E+01  0.614999999999999E+01
C    -0.252000000000001E+01  0.227000000000001E+01  0.492000000000000E+01
C    -0.700000000000002E+00 -0.332000000000001E+01  0.492000000000000E+01
C    -0.138000000000000E+01 -0.310000000000001E+01  0.614999999999999E+01
C    -0.252000000000001E+01 -0.227000000000001E+01  0.614999999999999E+01
C    -0.294000000000001E+01 -0.169000000000000E+01  0.492000000000000E+01
C     0.294000000000001E+01 -0.169000000000000E+01  0.492000000000000E+01
C     0.252000000000001E+01 -0.227000000000001E+01  0.614999999999999E+01
C     0.138000000000000E+01 -0.310000000000001E+01  0.614999999999999E+01
C     0.700000000000002E+00 -0.332000000000001E+01  0.492000000000000E+01
C     0.252000000000001E+01  0.227000000000001E+01  0.492000000000000E+01
C     0.294000000000001E+01  0.170000000000000E+01  0.614999999999999E+01
C     0.337000000000001E+01  0.350000000000001E+00  0.614999999999999E+01
C     0.337000000000001E+01 -0.350000000000001E+00  0.492000000000000E+01
C     0.700000000000002E+00  0.332000000000001E+01  0.614999999999999E+01
C     0.138000000000000E+01  0.310000000000001E+01  0.492000000000000E+01
       100
 CNT mdstep=                    4
C    -0.136716086672348E+01  0.311439425975366E+01 -0.493450103740865E+01
C    -0.713828914233311E+00  0.326978266863013E+01 -0.366492643362693E+01
C    -0.337254176691937E+01 -0.336539818644895E+00 -0.491939167953440E+01
C    -0.336159024207281E+01  0.340442242504320E+00 -0.365933167486772E+01
C    -0.290890544773198E+01  0.171565078133378E+01 -0.362358534655201E+01
C    -0.248878708196855E+01  0.229948625871757E+01 -0.492725662856632E+01
C    -0.664670172520527E+00 -0.329377172436076E+01 -0.489246993833335E+01
C    -0.139225982248124E+01 -0.315263186967781E+01 -0.369937942928524E+01
C    -0.254242465266389E+01 -0.230080004212075E+01 -0.371093259019363E+01
C    -0.295157930258601E+01 -0.166524752776949E+01 -0.492025642987694E+01
C     0.293135888432752E+01 -0.166670550123981E+01 -0.488811133891635E+01
C     0.252463036147270E+01 -0.225685951024388E+01 -0.364223613316994E+01
C     0.142241970367081E+01 -0.310568335568537E+01 -0.366343730997223E+01
C     0.717458252834501E+00 -0.332463454792727E+01 -0.495880130525312E+01
C     0.257351583834365E+01  0.231422335938551E+01 -0.492221808957585E+01
C     0.297610032405640E+01  0.170639624011493E+01 -0.368761945142597E+01
C     0.335068810350560E+01  0.374518264798802E+00 -0.372765673794685E+01
C     0.338312442404500E+01 -0.332811721992119E+00 -0.490894386079649E+01
C     0.695872363823454E+00  0.331691436626856E+01 -0.366180350314860E+01
C     0.139060825091144E+01  0.309720000000762E+01 -0.490179847481704E+01
C    -0.136381469717686E+01  0.314453430297707E+01 -0.244431373279727E+01
C    -0.686413718519798E+00  0.329758623930055E+01 -0.120467819029816E+01
C    -0.336296467618551E+01 -0.339756293540941E+00 -0.249787278838067E+01
C    -0.335571143205047E+01  0.365010343871510E+00 -0.122876278286567E+01
C    -0.296475058791988E+01  0.167759458717055E+01 -0.121446121347152E+01
C    -0.252052700667945E+01  0.229532478317528E+01 -0.243921654681246E+01
C    -0.702877392423337E+00 -0.335528254471866E+01 -0.247608199612839E+01
C    -0.135795814040688E+01 -0.312360806299362E+01 -0.120337373580191E+01
C    -0.254000718969886E+01 -0.228114782965399E+01 -0.123756289906668E+01
C    -0.292132675296881E+01 -0.171219531495827E+01 -0.246754204721426E+01
C     0.293545393875329E+01 -0.165101580385515E+01 -0.243846007236440E+01
C     0.249629614886288E+01 -0.224913906905342E+01 -0.126368872995838E+01
C     0.136171545533496E+01 -0.309419653491683E+01 -0.121037152940791E+01
C     0.678355816717931E+00 -0.328338337688895E+01 -0.242631203691321E+01
C     0.251282249623095E+01  0.226597788283424E+01 -0.247263650229536E+01
C     0.290311502601704E+01  0.172686842162248E+01 -0.119769444563538E+01
C     0.338806487836052E+01  0.353152230610172E+00 -0.118620175191343E+01
C     0.336114052915431E+01 -0.296191669454195E+00 -0.242792169141053E+01
C     0.686022882580264E+00  0.327538867157889E+01 -0.124418873415675E+01
C     0.135293760073095E+01  0.313343385633208E+01 -0.245505918538209E+01
C    -0.135096015358424E+01  0.308548522294077E+01  0.514267217641359E-02
C    -0.693772031183882E+00  0.334460729233938E+01  0.123424460773294E+01
C    -0.335214495208133E+01 -0.374167877382864E+00 -0.737984216973768E-02
C    -0.338922085629706E+01  0.343430472684577E+00  0.122397914801585E+01
C    -0.291890335285242E+01  0.170402491185084E+01  0.125010047632384E+01
C    -0.249624659405112E+01  0.224022407385369E+01  0.148754168711544E-01
C    -0.727760546588055E+00 -0.332905152006217E+01 -0.391838690364583E-01
C    -0.140638008229166E+01 -0.312455069922346E+01  0.124145750235353E+01
C    -0.253461810221339E+01 -0.229295344487711E+01  0.124569986026612E+01
C    -0.292959116240425E+01 -0.165530063467386E+01  0.246531100157075E-01
C     0.292879528173725E+01 -0.166196187146969E+01 -0.152638913975903E-01
C     0.254766663186540E+01 -0.227694736789125E+01  0.121860019813364E+01
C     0.138710876803532E+01 -0.312289145437997E+01  0.119636181928186E+01
C     0.692392684568282E+00 -0.330921835478823E+01 -0.614519576703771E-03
C     0.252567288249847E+01  0.229692217240589E+01  0.976305515834341E-02
C     0.292647801418607E+01  0.168199519218609E+01  0.123707169349235E+01
C     0.336335695856619E+01  0.343218665544955E+00  0.122615886960838E+01
C     0.335990868937456E+01 -0.349338898218632E+00 -0.314642963574506E-01
C     0.720893582977780E+00  0.338656984522775E+01  0.125910944492120E+01
C     0.140238024546208E+01  0.311331389052770E+01  0.148241033802822E-01
C    -0.134206884777601E+01  0.307482325705425E+01  0.244656492115487E+01
C    -0.713073937671961E+00  0.327397107289521E+01  0.364839258790591E+01
C    -0.337343411428319E+01 -0.356359351615307E+00  0.246627552777708E+01
C    -0.339724524157129E+01  0.330761116985400E+00  0.369493044094006E+01
C    -0.298468594839067E+01  0.170425371554408E+01  0.369201061125120E+01
C    -0.255106498861312E+01  0.226837236239231E+01  0.245798642162429E+01
C    -0.703255209754012E+00 -0.333000353650032E+01  0.248546377643338E+01
C    -0.143177552207624E+01 -0.314271010675981E+01  0.371449986148343E+01
C    -0.252591116745058E+01 -0.226229018482416E+01  0.368127900591636E+01
C    -0.293254274642924E+01 -0.168948587710257E+01  0.245889042691033E+01
C     0.294251895087149E+01 -0.167144590251045E+01  0.247212214938580E+01
C     0.249814731681811E+01 -0.225027884356718E+01  0.370218471084866E+01
C     0.138994113704363E+01 -0.308356809708886E+01  0.371133636718053E+01
C     0.706058119653437E+00 -0.333484225447409E+01  0.245717819860578E+01
C     0.256258615032191E+01  0.228809041461975E+01  0.245563055371988E+01
C     0.297062220718007E+01  0.169338240267120E+01  0.368576860038978E+01
C     0.337136683881257E+01  0.344401857951592E+00  0.365434609999818E+01
C     0.334135962095197E+01 -0.373900221490963E+00  0.246504366528648E+01
C     0.709635810272025E+00  0.336146930264419E+01  0.370754761242269E+01
C     0.137635858312319E+01  0.314076778264335E+01  0.244795066726760E+01
C    -0.137590053892550E+01  0.306628333508872E+01  0.490021742533211E+01
C    -0.702100870254732E+00  0.332265132911619E+01  0.614333094209365E+01
C    -0.336760374260669E+01 -0.376452491539193E+00  0.492785631675520E+01
C    -0.336090282744115E+01  0.322471951894831E+00  0.614462374403313E+01
C    -0.292288067921579E+01  0.167959348414737E+01  0.613839006546170E+01
C    -0.251267217138535E+01  0.228433601589297E+01  0.492065737763346E+01
C    -0.718418867776220E+00 -0.331774893106819E+01  0.494899425495641E+01
C    -0.137593299314878E+01 -0.309152720625145E+01  0.614493708089789E+01
C    -0.247367968705011E+01 -0.229952195060294E+01  0.617790853100114E+01
C    -0.295687469575342E+01 -0.170922728903077E+01  0.495000356343023E+01
C     0.291956485116947E+01 -0.172131060924275E+01  0.491886512219605E+01
C     0.248976077136736E+01 -0.228312775614925E+01  0.616854591943282E+01
C     0.136269519925784E+01 -0.311468040610368E+01  0.612954243840665E+01
C     0.690029336735395E+00 -0.332696297567777E+01  0.492039817836792E+01
C     0.253111980936022E+01  0.225333365676683E+01  0.493623743893259E+01
C     0.293314230103108E+01  0.168847734829538E+01  0.611255869499449E+01
C     0.333269712233697E+01  0.342844706116494E+00  0.614603753095160E+01
C     0.336239786229770E+01 -0.347615488883934E+00  0.492066249307207E+01
C     0.693256201618382E+00  0.334745683028406E+01  0.612972482386653E+01
C     0.138210928582409E+01  0.308963027959352E+01  0.495802829803034E+01
       100
 CNT mdstep=                    8
C    -0.134968682892141E+01  0.313412928878316E+01 -0.495265241892086E+01
C    -0.720045131917432E+00  0.321547178091525E+01 -0.366172068386219E+01
C    -0.337652852294829E+01 -0.325486685534090E+00 -0.491938919433531E+01
C    -0.334515466090536E+01  0.372432742937517E+00 -0.366892317317692E+01
C    -0.286915610036064E+01  0.172887459461731E+01 -0.359343358009026E+01
C    -0.246714793727276E+01  0.231657682204197E+01 -0.493502111779406E+01
C    -0.633183327323961E+00 -0.326437704075206E+01 -0.489253133419634E+01
C    -0.141493326797246E+01 -0.322249212236301E+01 -0.372351482076093E+01
C    -0.257226933751849E+01 -0.234595167559302E+01 -0.374694319058794E+01
C    -0.295577711783485E+01 -0.165804189684086E+01 -0.492835893246865E+01
C     0.291303369890217E+01 -0.165233803106717E+01 -0.486266195056426E+01
C     0.254146017485457E+01 -0.222776891582193E+01 -0.360842605275838E+01
C     0.145727942808538E+01 -0.312049099573469E+01 -0.365002311697551E+01
C     0.755396263062347E+00 -0.333315624145338E+01 -0.497104612419215E+01
C     0.264260478879161E+01  0.237676746342941E+01 -0.494528277068843E+01
C     0.302130476164307E+01  0.173640958438338E+01 -0.371188339212422E+01
C     0.333641590716138E+01  0.411592290881927E+00 -0.374693340691852E+01
C     0.339475414674347E+01 -0.327132853134424E+00 -0.492263121028661E+01
C     0.686354634121383E+00  0.331270744490942E+01 -0.366016507700932E+01
C     0.140282793571525E+01  0.310201685166990E+01 -0.489817093783903E+01
C    -0.136455113181026E+01  0.319267311955297E+01 -0.242264225886068E+01
C    -0.677876026037115E+00  0.327154291760453E+01 -0.120090731813049E+01
C    -0.334882893297176E+01 -0.358789763578429E+00 -0.251361790031453E+01
C    -0.334400302945655E+01  0.359711013561222E+00 -0.125799511328436E+01
C    -0.298177138662688E+01  0.167370893506465E+01 -0.120602192581380E+01
C    -0.251977544135233E+01  0.234240003262615E+01 -0.239980589930756E+01
C    -0.725465219188783E+00 -0.340326760130197E+01 -0.249539754419703E+01
C    -0.137244285247457E+01 -0.314646175927602E+01 -0.123751676532137E+01
C    -0.255459722234602E+01 -0.230211755548803E+01 -0.124401808804633E+01
C    -0.290534993376652E+01 -0.173715939346572E+01 -0.250157728860589E+01
C     0.293073194622632E+01 -0.158704297362106E+01 -0.242903027362721E+01
C     0.246489241175007E+01 -0.221855573254708E+01 -0.129015545334164E+01
C     0.134230632743450E+01 -0.307575647226899E+01 -0.120957904580714E+01
C     0.669278334391266E+00 -0.324119989018664E+01 -0.242226816499522E+01
C     0.249696690419755E+01  0.227412373346010E+01 -0.248545812679011E+01
C     0.286725171386596E+01  0.174370267407236E+01 -0.119154776859007E+01
C     0.340560174876905E+01  0.412583567577308E+00 -0.117637058928804E+01
C     0.334819754741672E+01 -0.232986703593170E+00 -0.242335555544357E+01
C     0.690233205146492E+00  0.322034543979434E+01 -0.124502932237481E+01
C     0.134678211881852E+01  0.316120124287327E+01 -0.246577836950116E+01
C    -0.132491811515610E+01  0.305757558655327E+01  0.248907160052191E-01
C    -0.679535974379273E+00  0.338077264852879E+01  0.123547974792474E+01
C    -0.333796889275910E+01 -0.370693575410342E+00 -0.103869904882315E-01
C    -0.341342159856202E+01  0.348722609922922E+00  0.122287174910091E+01
C    -0.290785165464288E+01  0.168301721867794E+01  0.126139220486850E+01
C    -0.245598309746006E+01  0.220798892610491E+01  0.344721773989408E-01
C    -0.747902196781758E+00 -0.334958569127574E+01 -0.289435226988061E-01
C    -0.143233037115589E+01 -0.316688840687478E+01  0.125047497667979E+01
C    -0.255910990106870E+01 -0.231863273343125E+01  0.126247642684412E+01
C    -0.290027740766297E+01 -0.165984286795825E+01  0.394536246354533E-01
C     0.290467310040907E+01 -0.165037022880825E+01 -0.420371767450325E-01
C     0.258113868062194E+01 -0.228643036961186E+01  0.120402801447289E+01
C     0.140496689578810E+01 -0.314945991350744E+01  0.117787766637527E+01
C     0.675108318484297E+00 -0.330182504327916E+01 -0.453767242399031E-02
C     0.253281480734885E+01  0.233628168008673E+01  0.384538614902334E-01
C     0.291612327076962E+01  0.165848898344823E+01  0.124428081270323E+01
C     0.335039239161744E+01  0.334509906228160E+00  0.121906498558836E+01
C     0.335282974944402E+01 -0.353143828649542E+00 -0.284802360852575E-01
C     0.749325217173356E+00  0.348356197976475E+01  0.126942851637734E+01
C     0.141467305105611E+01  0.314671805064104E+01  0.331750775914141E-01
C    -0.132485087134401E+01  0.302739554786887E+01  0.241577621629572E+01
C    -0.706263641109836E+00  0.321819850007813E+01  0.362536933560425E+01
C    -0.338487600055150E+01 -0.367826742888074E+00  0.246373751304915E+01
C    -0.343487815003122E+01  0.322735054163394E+00  0.370743382148360E+01
C    -0.304915348105946E+01  0.170392410844691E+01  0.369644190191605E+01
C    -0.257585207698019E+01  0.228131567335054E+01  0.247094303556427E+01
C    -0.721232548752497E+00 -0.335111394183327E+01  0.251395222317259E+01
C    -0.148873715238938E+01 -0.320296367728858E+01  0.374538079914136E+01
C    -0.254406783915697E+01 -0.225760911770658E+01  0.369193558308924E+01
C    -0.292465342601090E+01 -0.169400382361741E+01  0.246145722406230E+01
C     0.292950330163716E+01 -0.168737523080135E+01  0.247816732636741E+01
C     0.247522377878753E+01 -0.222553698900995E+01  0.370965483612080E+01
C     0.138385341561566E+01 -0.307469338775870E+01  0.372079235139992E+01
C     0.724687839435729E+00 -0.335241271712700E+01  0.245657497026389E+01
C     0.260508921944544E+01  0.232780224227435E+01  0.245645533621903E+01
C     0.300977178078602E+01  0.169129311911316E+01  0.367661525226195E+01
C     0.337433017904635E+01  0.343221091144694E+00  0.363771301378653E+01
C     0.331480387981755E+01 -0.383630087018840E+00  0.244987285338962E+01
C     0.725864817242100E+00  0.341109993602172E+01  0.372408422701268E+01
C     0.140361658991236E+01  0.319584120223629E+01  0.246538993348449E+01
C    -0.135787121483527E+01  0.302826905580432E+01  0.487338462720287E+01
C    -0.708458513219558E+00  0.333215746902924E+01  0.611293854907675E+01
C    -0.337068143116184E+01 -0.417722044487030E+00  0.493652737080130E+01
C    -0.334689885654142E+01  0.316315440490045E+00  0.613449501057155E+01
C    -0.289768376936967E+01  0.165489705687240E+01  0.613243967810114E+01
C    -0.252281716756707E+01  0.228615680926806E+01  0.491359983343667E+01
C    -0.746075248737555E+00 -0.332553363411196E+01  0.496202614505468E+01
C    -0.134452997064925E+01 -0.309406383839413E+01  0.617349428506643E+01
C    -0.245448594123526E+01 -0.230700080856121E+01  0.620253692129417E+01
C    -0.296713332789221E+01 -0.175596334757121E+01  0.498041209398634E+01
C     0.289921800530551E+01 -0.174349024683292E+01  0.493882940169704E+01
C     0.246318765953434E+01 -0.228809987839387E+01  0.619162287123082E+01
C     0.135254789924364E+01 -0.313456527051974E+01  0.609861240106627E+01
C     0.675023566834967E+00 -0.333805812953159E+01  0.491278664679090E+01
C     0.253753594137186E+01  0.224365101983253E+01  0.492644989159860E+01
C     0.293367651157345E+01  0.167016161919542E+01  0.610146601230164E+01
C     0.328813699914126E+01  0.341131998449659E+00  0.613160187546858E+01
C     0.334638051578545E+01 -0.365994906730598E+00  0.490762066482859E+01
C     0.698860421340806E+00  0.338114652842985E+01  0.613855748787459E+01
C     0.139201144556318E+01  0.308178217982995E+01  0.497720077644189E+01
       100
 CNT mdstep=                   12
C    -0.134139846862552E+01  0.314591600136883E+01 -0.495652320277314E+01
C    -0.710992692401942E+00  0.319074674238135E+01 -0.367127322306408E+01
C    -0.337763717833449E+01 -0.320328274909042E+00 -0.491134180816060E+01
C    -0.332634018170657E+01  0.420499345044952E+00 -0.369538157412767E+01
C    -0.283647365875788E+01  0.174196729601933E+01 -0.360855443839770E+01
C    -0.246703099839910E+01  0.230714040145236E+01 -0.492765312464353E+01
C    -0.612355082780666E+00 -0.325222670240617E+01 -0.490295010118932E+01
C    -0.143819724722103E+01 -0.327414548019127E+01 -0.374164918879042E+01
C    -0.259151385951245E+01 -0.238859080748620E+01 -0.376588142147597E+01
C    -0.295179279498584E+01 -0.167201039718847E+01 -0.492634254548715E+01
C     0.289453059756277E+01 -0.165384007609269E+01 -0.485078775053147E+01
C     0.255890634820757E+01 -0.219845082601410E+01 -0.360004755325199E+01
C     0.146906150701606E+01 -0.313159807828937E+01 -0.364607735715680E+01
C     0.789518437867125E+00 -0.334305098138597E+01 -0.493193352182487E+01
C     0.269094633798881E+01  0.242654946391003E+01 -0.496734356179449E+01
C     0.304968373291702E+01  0.179124631340068E+01 -0.373798564763419E+01
C     0.333994050548842E+01  0.435528226942420E+00 -0.373097116658604E+01
C     0.339346931609314E+01 -0.332668854331388E+00 -0.493873721121475E+01
C     0.675969276249265E+00  0.330657844162233E+01 -0.368075631340256E+01
C     0.141309345266916E+01  0.311714840391799E+01 -0.490232235685566E+01
C    -0.138440763239809E+01  0.321719811177535E+01 -0.240011828151364E+01
C    -0.672896268140275E+00  0.325506829977213E+01 -0.120389837693596E+01
C    -0.333151894892118E+01 -0.392525386659350E+00 -0.250017602730386E+01
C    -0.334003718960010E+01  0.330135687898077E+00 -0.128573227953256E+01
C    -0.297533978824019E+01  0.169726813307831E+01 -0.119579646458058E+01
C    -0.252497890063358E+01  0.238500942338182E+01 -0.235555199396511E+01
C    -0.750466087403770E+00 -0.344108707266810E+01 -0.250219410692356E+01
C    -0.141664844715228E+01 -0.316329476106513E+01 -0.128684913950855E+01
C    -0.255355519263357E+01 -0.232324498512821E+01 -0.124113222662545E+01
C    -0.290412835213154E+01 -0.175298402941233E+01 -0.253051322893103E+01
C     0.292476986314770E+01 -0.152664907592588E+01 -0.242607914123979E+01
C     0.244065771770034E+01 -0.218944456724147E+01 -0.127924935916771E+01
C     0.132851718637130E+01 -0.304753187310194E+01 -0.122185783800729E+01
C     0.669303186093997E+00 -0.322024754029341E+01 -0.244797993174394E+01
C     0.248501662989784E+01  0.229262155656646E+01 -0.248522201695432E+01
C     0.284783814266687E+01  0.175439548578456E+01 -0.120026130097367E+01
C     0.341140886404366E+01  0.487936422916801E+00 -0.118882406636724E+01
C     0.333777580724750E+01 -0.186216479203687E+00 -0.243995508771985E+01
C     0.709685086337460E+00  0.318583669319089E+01 -0.121843064638836E+01
C     0.136879219773642E+01  0.316454233808051E+01 -0.247296971331647E+01
C    -0.131141518617789E+01  0.303027390864865E+01  0.446924142543005E-01
C    -0.658602876870120E+00  0.340999563495575E+01  0.123222525581798E+01
C    -0.333083470948557E+01 -0.346405313466691E+00 -0.109724522212813E-01
C    -0.343094949687730E+01  0.355953634417977E+00  0.122778870652355E+01
C    -0.291330070365856E+01  0.165278652413108E+01  0.126139971620373E+01
C    -0.242157782186073E+01  0.218289695402313E+01  0.486346411868785E-01
C    -0.754918460822144E+00 -0.337083555794939E+01  0.122255690246797E-01
C    -0.144645308249576E+01 -0.320866056455615E+01  0.125871963756758E+01
C    -0.257701017501537E+01 -0.233871494901134E+01  0.126870030377323E+01
C    -0.287104139387306E+01 -0.169668784068076E+01  0.316767134304672E-01
C     0.288067383965306E+01 -0.166066411975530E+01 -0.623644952849912E-01
C     0.259555178312135E+01 -0.230068851796005E+01  0.119186358183424E+01
C     0.142582719451454E+01 -0.316547018882469E+01  0.118838564217133E+01
C     0.655705834251667E+00 -0.330268420397835E+01 -0.685386540233559E-02
C     0.253996465443813E+01  0.236253467530502E+01  0.664417748988624E-01
C     0.291327367773579E+01  0.165664041582112E+01  0.124902636752308E+01
C     0.333535075523989E+01  0.322612033601845E+00  0.121473877956906E+01
C     0.335341763293301E+01 -0.347899799604895E+00 -0.693438481199392E-02
C     0.770234533223941E+00  0.356557372843763E+01  0.126103900108775E+01
C     0.141085558424195E+01  0.318810409885254E+01  0.452832610393666E-01
C    -0.133567244654182E+01  0.298187856267495E+01  0.239324742304119E+01
C    -0.673631514945232E+00  0.318092320943857E+01  0.363081248300807E+01
C    -0.340170186071154E+01 -0.374958427986520E+00  0.245652587352158E+01
C    -0.346637599360956E+01  0.319754735191549E+00  0.371900873877003E+01
C    -0.309986027952497E+01  0.170466856978630E+01  0.370314484592084E+01
C    -0.258460495024005E+01  0.229386734775136E+01  0.248687245771092E+01
C    -0.740217464608465E+00 -0.337835510192142E+01  0.252795642672046E+01
C    -0.152259203398028E+01 -0.324838019078520E+01  0.376193279291392E+01
C    -0.256401852673463E+01 -0.227079676690239E+01  0.372034267480715E+01
C    -0.292372799592005E+01 -0.169854244828520E+01  0.247123626860453E+01
C     0.291003001826701E+01 -0.172414320529522E+01  0.246849973169606E+01
C     0.245829230612011E+01 -0.221602453906816E+01  0.371207648135229E+01
C     0.136281149239719E+01 -0.307914858535669E+01  0.370767031410390E+01
C     0.735095315905879E+00 -0.336422681903770E+01  0.245779312117197E+01
C     0.262671877087373E+01  0.236686335172306E+01  0.246368430814767E+01
C     0.303535965605619E+01  0.170355314415257E+01  0.366646340250360E+01
C     0.337676108129886E+01  0.337201712544374E+00  0.364825769444540E+01
C     0.330386524211517E+01 -0.375329516382195E+00  0.242578753029760E+01
C     0.738466979092956E+00  0.344041175236483E+01  0.372982213642410E+01
C     0.145430720659733E+01  0.324554224025266E+01  0.250055810509883E+01
C    -0.133855582051263E+01  0.300117828958625E+01  0.485176355739793E+01
C    -0.706724694966650E+00  0.334549623177531E+01  0.607690283918305E+01
C    -0.338047502323045E+01 -0.448484751527285E+00  0.494134133955225E+01
C    -0.333453301817571E+01  0.327538129975831E+00  0.612667543551386E+01
C    -0.287352567023799E+01  0.164701466103224E+01  0.613713386225364E+01
C    -0.254759773788019E+01  0.226937110345621E+01  0.490073416608679E+01
C    -0.762921589248064E+00 -0.334614393549426E+01  0.495260437689949E+01
C    -0.130957828965374E+01 -0.309874758954752E+01  0.621731382310330E+01
C    -0.246979716587180E+01 -0.229419440628610E+01  0.620918353036339E+01
C    -0.296733802882598E+01 -0.180173261705979E+01  0.499127479208010E+01
C     0.289003995170752E+01 -0.173803995093736E+01  0.496930011846074E+01
C     0.245586436740761E+01 -0.228061077316264E+01  0.620537897325030E+01
C     0.135981783600892E+01 -0.314933980278443E+01  0.608281224221994E+01
C     0.654235716265824E+00 -0.334892738540576E+01  0.489622569531978E+01
C     0.253740990555718E+01  0.224452914174285E+01  0.489515039111888E+01
C     0.293977230911198E+01  0.166771981749973E+01  0.612090155743570E+01
C     0.326236389547415E+01  0.333048190770263E+00  0.611189681208371E+01
C     0.332693355139669E+01 -0.392697588502568E+00  0.488860650266556E+01
C     0.713898490907295E+00  0.340063140008816E+01  0.617058188519853E+01
C     0.140547920731901E+01  0.308577571800322E+01  0.496411341742867E+01
       100
 CNT mdstep=                   16
C    -0.135086449826821E+01  0.314413421787305E+01 -0.495598900883810E+01
C    -0.695135251592866E+00  0.320847829776797E+01 -0.368660033231752E+01