        12
 C6H6 mdstep=                    0
C     0.140000000000000E+01  0.000000000000000E+00  0.000000000000000E+00
C     0.700000000000000E+00  0.121244000000000E+01  0.000000000000000E+00
C    -0.700000000000000E+00  0.121243000000000E+01  0.000000000000000E+00
C    -0.140000000000000E+01  0.000000000000000E+00  0.000000000000000E+00
C    -0.700000000000000E+00 -0.121244000000000E+01  0.000000000000000E+00
C     0.700000000000000E+00 -0.121243000000000E+01  0.000000000000000E+00
H     0.246000000000000E+01  0.000000000000000E+00  0.000000000000000E+00
H     0.123000000000000E+01  0.213042000000000E+01  0.000000000000000E+00
H    -0.123000000000000E+01  0.213042000000000E+01  0.000000000000000E+00
H    -0.246000000000000E+01  0.000000000000000E+00  0.000000000000000E+00
H    -0.123000000000000E+01 -0.213042000000000E+01  0.000000000000000E+00
H     0.123000000000000E+01 -0.213042000000000E+01  0.000000000000000E+00
        12
 C6H6 mdstep=                    1
C     0.140127129633208E+01  0.229943040865001E-02 -0.676224721939342E-02
C     0.695760491140332E+00  0.120092201049616E+01  0.264396490030356E-02
C    -0.701995611663154E+00  0.121536214021477E+01 -0.351809712324185E-02
C    -0.139999971026497E+01 -0.479170973172793E-02  0.449930306047937E-02
C    -0.694792499341289E+00 -0.120926302158711E+01  0.123425191307319E-01
C     0.705855116618895E+00 -0.120640969419030E+01 -0.531863609011759E-02
H     0.247962003993229E+01  0.220294959061900E-01  0.537411902199933E-02
H     0.121136611900063E+01  0.209508311899681E+01 -0.247426657616336E-01
H    -0.125694854593552E+01  0.211096015542158E+01 -0.334142518448295E-01
H    -0.248143046469224E+01  0.241495212777104E-01 -0.183963872802257E-01
H    -0.124648558132476E+01 -0.210898496076474E+01  0.592663869318902E-02
H     0.122119835161379E+01 -0.212082413735640E+01  0.189351855915899E-01
        12
 C6H6 mdstep=                    2
C     0.140343630657969E+01  0.445849651546008E-02 -0.134857715509468E-01
C     0.691070455892247E+00  0.118923202554450E+01  0.516750557999476E-02
C    -0.704350857891325E+00  0.121807502061736E+01 -0.712889321261544E-02
C    -0.140084965892526E+01 -0.929287201085998E-02  0.897516957387004E-02
C    -0.689983921893990E+00 -0.120608865153030E+01  0.247396744993696E-01
C     0.711759288243056E+00 -0.120056627419835E+01 -0.105045549499957E-01
H     0.249412431427511E+01  0.433906106465366E-01  0.100698769908490E-01
H     0.120064417957640E+01  0.207333996739263E+01 -0.492659405088283E-01
H    -0.128389912763127E+01  0.209572748246325E+01 -0.666472348318807E-01
H    -0.249620481368301E+01  0.461697578380088E-01 -0.361873912752977E-01
H    -0.126277363399605E+01 -0.209214529131155E+01  0.123539485832183E-01
H     0.121605439617111E+01 -0.211664443706418E+01  0.371669436746683E-01
        12
 C6H6 mdstep=                    3
C     0.140698544488819E+01  0.643012749685329E-02 -0.203440945457075E-01
C     0.685394506229295E+00  0.117700166265277E+01  0.754136144267687E-02
C    -0.707367352708794E+00  0.122033354056379E+01 -0.110422520574999E-01
C    -0.140292545589593E+01 -0.133492799995805E-01  0.135403303500670E-01
C    -0.685664056334777E+00 -0.120267875709901E+01  0.376515510913266E-01
C     0.717868632846155E+00 -0.119481589852788E+01 -0.155914043668440E-01
H     0.249953360218260E+01  0.639973616944659E-01  0.134577895385403E-01
H     0.120134887520823E+01  0.207113448466435E+01 -0.744377068206637E-01
H    -0.131007269244150E+01  0.208533680181670E+01 -0.100590819414696E+00
H    -0.249933616059724E+01  0.645326004701618E-01 -0.531294590023905E-01
H    -0.127769694009977E+01 -0.208121129228352E+01  0.200033201516186E-01
H     0.121591520017747E+01 -0.211943734198627E+01  0.546118604352692E-01
        12
 C6H6 mdstep=                    4
C     0.141235192140641E+01  0.823844145492585E-02 -0.276605555167154E-01
C     0.678481460826993E+00  0.116448963227460E+01  0.969713838278802E-02
C    -0.711452631578354E+00  0.122212067152226E+01 -0.155912861894115E-01
C    -0.140648669688369E+01 -0.168818659514703E-01  0.184109468659622E-01
C    -0.681869268284523E+00 -0.119887820307487E+01  0.518418697252614E-01
C     0.724584139080724E+00 -0.118927570072127E+01 -0.206781379045048E-01
H     0.249450563481410E+01  0.840957932656527E-01  0.148362669771452E-01
H     0.121120580166046E+01  0.208439383331201E+01 -0.100993736753465E+00
H    -0.133404075196623E+01  0.207855739246705E+01 -0.136669979167625E+00
H    -0.248883027963356E+01  0.778887366223644E-01 -0.692107385863221E-01
H    -0.128931696169096E+01 -0.207591940867115E+01  0.299076929487378E-01
H     0.122047188343235E+01 -0.212762206669823E+01  0.712275100622844E-01
        12
 C6H6 mdstep=                    5
C     0.141976013570567E+01  0.990076631386557E-02 -0.356908482853197E-01
C     0.670358558042118E+00  0.115272724056840E+01  0.113895055676251E-01
C    -0.716980325023492E+00  0.122345460164074E+01 -0.211302164136317E-01
C    -0.141156815935026E+01 -0.197611513348263E-01  0.237731005879603E-01
C    -0.678693340468187E+00 -0.119466710509793E+01  0.679745420270346E-01
C     0.732304603111706E+00 -0.118439815180541E+01 -0.257285020277281E-01
H     0.248068938559781E+01  0.103643098278369E+00  0.132871452159523E-01
H     0.122422985852938E+01  0.210289981765534E+01 -0.128229199620804E+00
H    -0.135330869894512E+01  0.207375935717783E+01 -0.175653942789673E+00
H    -0.246624723944209E+01  0.844254212800977E-01 -0.842043442781772E-01
H    -0.129466378297051E+01 -0.207552950942592E+01  0.432666421246477E-01
H     0.122838956745648E+01 -0.213733594145065E+01  0.862005665046508E-01
        12
 C6H6 mdstep=                    6
C     0.142889177805598E+01  0.113799779263301E-01 -0.444483501439828E-01
C     0.661254333941866E+00  0.114319168812379E+01  0.122101844000515E-01
C    -0.724105045810063E+00  0.122433481733883E+01 -0.278995606501366E-01
C    -0.141769248520308E+01 -0.218201774483255E-01  0.296865739447735E-01
C    -0.676279447763579E+00 -0.119023365786294E+01  0.862349173305104E-01
C     0.741174914999219E+00 -0.118089794934141E+01 -0.304674873144991E-01
H     0.246432203977347E+01  0.122161574920012E+00  0.786445278818659E-02
H     0.123393941544278E+01  0.211618703609345E+01 -0.153921016052153E+00
H    -0.136446679630204E+01  0.206935386101024E+01 -0.216762658738582E+00
H    -0.243924697141054E+01  0.822640308759544E-01 -0.977059176079761E-01
H    -0.129017410906327E+01 -0.207885531215603E+01  0.610945299082781E-01
H     0.123780293712649E+01 -0.214373952699909E+01  0.977476897989156E-01
        12
 C6H6 mdstep=                    7
C     0.143870980761894E+01  0.125853006404113E-01 -0.537161912373187E-01
C     0.651597256127232E+00  0.113734907594142E+01  0.117077732608690E-01
C    -0.732652244057515E+00  0.122471329043109E+01 -0.359570874565728E-01
C    -0.142368493475033E+01 -0.229967241416072E-01  0.361242039189903E-01
C    -0.674673941570402E+00 -0.118589641727147E+01  0.106288590733996E+00
C     0.751034856298180E+00 -0.117945379690693E+01 -0.344627331757867E-01
H     0.245671022247341E+01  0.139317221622578E+00 -0.201324269896168E-02
H     0.123474634468318E+01  0.211605736816868E+01 -0.175111299573215E+00
H    -0.136482769007176E+01  0.206455798817933E+01 -0.257972320109516E+00
H    -0.242324088769342E+01  0.706449578853722E-01 -0.109874756780788E+00
H    -0.127331899232149E+01 -0.208459011973119E+01  0.839314075239181E-01
H     0.124682341730679E+01 -0.214273923883733E+01  0.103727474978382E+00
        12
 C6H6 mdstep=                    8
C     0.144797276570476E+01  0.134267881533828E-01 -0.630962368308661E-01
C     0.641973387068812E+00  0.113614488940891E+01  0.953604750285940E-02
C    -0.742146876416794E+00  0.122444907166683E+01 -0.451437123560077E-01
C    -0.142835785536115E+01 -0.233573725176602E-01  0.429560851699921E-01
C    -0.673743539191722E+00 -0.118196718470826E+01  0.127382440507069E+00
C     0.761464172496916E+00 -0.118035950959692E+01 -0.372711717606618E-01
H     0.246716472636346E+01  0.154884440675299E+00 -0.165531860721248E-01
H     0.122352129595902E+01  0.209912125784669E+01 -0.189228864459780E+00
H    -0.135399121649445E+01  0.206013420359808E+01 -0.296831497100711E+00
H    -0.243232620791533E+01  0.499356866090992E-01 -0.121066493701171E+00
H    -0.124407756951561E+01 -0.209191842643569E+01  0.111659719839961E+00
H     0.125436192765909E+01 -0.213317054792416E+01  0.102526209253024E+00
        12
 C6H6 mdstep=                    9
C     0.145578149172410E+01  0.138880729911398E-01 -0.718374153288592E-01
C     0.633277592810478E+00  0.113963801972218E+01  0.565328228363463E-02
C    -0.751701498323749E+00  0.122331606153157E+01 -0.548440441444689E-01
C    -0.143157529530635E+01 -0.230276022388363E-01  0.496470686061132E-01
C    -0.673219701990841E+00 -0.117872762221393E+01  0.147965278046718E+00
C     0.771612799715601E+00 -0.118326617096491E+01 -0.385265506381153E-01
H     0.249366782154465E+01  0.167595100705814E+00 -0.353375889385221E-01
H     0.120112060342161E+01  0.206884677540334E+01 -0.194799186499694E+00
H    -0.133477993852233E+01  0.205853651624140E+01 -0.330349713894503E+00
H    -0.246397181069879E+01  0.215196276128274E-01 -0.129626636439001E+00
H    -0.120630465431178E+01 -0.210071148466966E+01  0.142714049919963E+00
H     0.126051171285653E+01 -0.211831812379060E+01  0.938832087799217E-01
        12
 C6H6 mdstep=                   10
C     0.146181139281780E+01  0.140602594270662E-01 -0.790055949485149E-01
C     0.626424478818037E+00  0.114652062680829E+01  0.538742216482391E-03
C    -0.760165532529763E+00  0.122118208616131E+01 -0.640038919977653E-01
C    -0.143417597991283E+01 -0.222859109950163E-01  0.553248506969476E-01
C    -0.672772828288682E+00 -0.117636208651539E+01  0.165910929002219E+00
C     0.780326189057793E+00 -0.118709632062821E+01 -0.381501967337540E-01
H     0.252260756879183E+01  0.175328040809119E+00 -0.566939501719967E-01
H     0.117389090413907E+01  0.203682414809666E+01 -0.192772925297405E+00
H    -0.131296505347139E+01  0.206258723127907E+01 -0.355832560657309E+00
H    -0.249984262838396E+01 -0.108311966063940E-01 -0.132271275338378E+00
H    -0.116745491763097E+01 -0.211104123597485E+01  0.173936157016743E+00
H     0.126651228594439E+01 -0.210542304544380E+01  0.796454309276562E-01
        12
 C6H6 mdstep=                   11
C     0.146627376166898E+01  0.140663480794959E-01 -0.842721157197667E-01
C     0.621503827134476E+00  0.115474535406825E+01 -0.515263183588965E-02
C    -0.766989048440808E+00  0.121813139034579E+01 -0.720010471182400E-01
C    -0.143695540725108E+01 -0.215249114589804E-01  0.595607432169588E-01
C    -0.672109158889670E+00 -0.117481951821223E+01  0.180256621266147E+00
C     0.787015515202874E+00 -0.119065538681830E+01 -0.364217708625015E-01
H     0.254202081877728E+01  0.177334503515845E+00 -0.787876633542992E-01
H     0.115057570558470E+01  0.201723444681092E+01 -0.186536232166028E+00
H    -0.129342459748997E+01  0.207315903119050E+01 -0.373036334579136E+00
H    -0.252488217229608E+01 -0.428403214383305E-01 -0.127484140423008E+00
H    -0.113352633667487E+01 -0.212277371059438E+01  0.203207574943263E+00
H     0.127425753096874E+01 -0.210143799462939E+01  0.625012025548745E-01
        12
 C6H6 mdstep=                   12
C     0.146965701995398E+01  0.139965537118928E-01 -0.880379373412771E-01
C     0.617779201919867E+00  0.116291593301548E+01 -0.112035169568728E-01
C    -0.772525056546532E+00  0.121430996317359E+01 -0.791443625511163E-01
C    -0.144040119055220E+01 -0.210471304820245E-01  0.625756049737176E-01
C    -0.670991764056430E+00 -0.117393048800354E+01  0.191762773252362E+00
C     0.792022168318453E+00 -0.119347754413676E+01 -0.335759251759567E-01
H     0.254811876686090E+01  0.174267215980418E+00 -0.101455185123345E+00
H     0.113771403846124E+01  0.202086730171380E+01 -0.179441851920805E+00
H    -0.127702579989661E+01  0.208878103492754E+01 -0.383410367584635E+00
H    -0.253449223499959E+01 -0.731129325516953E-01 -0.115350803488369E+00
H    -0.110567017196434E+01 -0.213569592693596E+01  0.231311260976473E+00
H     0.128449873867375E+01 -0.210808323576486E+01  0.433632538996571E-01
        12
 C6H6 mdstep=                   13
C     0.147229618493505E+01  0.139309730789207E-01 -0.908499216323766E-01
C     0.614696037005016E+00  0.117098653416135E+01 -0.179727251243163E-01
C    -0.777384891291455E+00  0.120978167025107E+01 -0.861918976906199E-01
C    -0.144483687119685E+01 -0.210878458018303E-01  0.647736916614369E-01
C    -0.669163994259014E+00 -0.117367774134606E+01  0.201718365882037E+00
C     0.796021994463960E+00 -0.119573185676214E+01 -0.295369124282783E-01
H     0.254145702608886E+01  0.166733227771555E+00 -0.125957469954131E+00
H     0.113601620123641E+01  0.205027275688527E+01 -0.172238752693229E+00
H    -0.126239110851879E+01  0.210721724884234E+01 -0.387845953399555E+00
H    -0.252928862216898E+01 -0.102417370099419E+00 -0.956357216471273E-01
H    -0.108238234777008E+01 -0.214899312261051E+01  0.260647679172702E+00
H     0.129634880708177E+01 -0.212288294767988E+01  0.212425685146507E-01
        12
 C6H6 mdstep=                   14
C     0.147409668659765E+01  0.139829686989603E-01 -0.930627558003142E-01
C     0.612383814080069E+00  0.117988330987972E+01 -0.260582429764454E-01
C    -0.781910723146931E+00  0.120464929642993E+01 -0.938081639649400E-01
C    -0.145034610039368E+01 -0.219263890931511E-01  0.664572238980038E-01
C    -0.666295896468256E+00 -0.117425165373886E+01  0.211030960142650E+00
C     0.799541938664900E+00 -0.119780866264781E+01 -0.240646694954207E-01
H     0.252464770727388E+01  0.155136343348343E+00 -0.153644355957110E+00
H     0.114026453996401E+01  0.209831435861973E+01 -0.163322090902764E+00
H    -0.124839913555348E+01  0.212582504875955E+01 -0.386009987881587E+00
H    -0.251202667827940E+01 -0.131400072177709E+00 -0.677821110246989E-01
H    -0.106255999192017E+01 -0.216095329029163E+01  0.293331227790493E+00
H     0.130739138964724E+01 -0.214089093002775E+01 -0.512602184643715E-02
        12
 C6H6 mdstep=                   15
C     0.147450255735365E+01  0.142993804842297E-01 -0.948266698359098E-01
C     0.611360485204912E+00  0.119052054183712E+01 -0.357668460890688E-01
C    -0.786032967893452E+00  0.119926799182514E+01 -0.102246038903026E+00
C    -0.145643600000982E+01 -0.238463138092255E-01  0.678258470418137E-01
C    -0.662098770875911E+00 -0.117593038752933E+01  0.219987390056764E+00
C     0.802775474423085E+00 -0.119999745398173E+01 -0.171078089524489E-01
H     0.250378262153704E+01  0.140547305096315E+00 -0.184807948742395E+00
H     0.114288133649872E+01  0.215144264869092E+01 -0.151023220579078E+00
H    -0.123530099987747E+01  0.214116040844388E+01 -0.377182046329989E+00
H    -0.248958109643665E+01 -0.159398981174476E+00 -0.325064542340582E-01
H    -0.104653123480659E+01 -0.216897356087389E+01  0.329776471073867E+00
H     0.131457088736574E+01 -0.215618298253407E+01 -0.354877215792506E-01
        12
 C6H6 mdstep=                   16
C     0.147271655484219E+01  0.150093816421966E-01 -0.961848563201426E-01
C     0.612005157348516E+00  0.120305854876848E+01 -0.468402798304548E-01
C    -0.789425916403434E+00  0.119420177896291E+01 -0.111288707458790E+00
C    -0.146191204539777E+01 -0.269628989757014E-01  0.690459414074978E-01
C    -0.656508350787510E+00 -0.117886985552648E+01  0.228435689943245E+00
C     0.805641832844923E+00 -0.120238817027291E+01 -0.900501039780205E-02
H     0.248907908566356E+01  0.125119280081350E+00 -0.218616050406535E+00
H     0.113810906929975E+01  0.219584250550331E+01 -0.135315212054116E+00
H    -0.122465327809624E+01  0.214992035253907E+01 -0.361539922705716E+00
H    -0.247420439559134E+01 -0.185068484298653E+00  0.746500318921876E-02
H    -0.103542127109485E+01 -0.217065985835648E+01  0.368453407581624E+00
H     0.131542522403854E+01 -0.216340137675357E+01 -0.675499836560842E-01
        12
 C6H6 mdstep=                   17
C     0.146841119943285E+01  0.162356039117244E-01 -0.972030106001047E-01
C     0.614360426590505E+00  0.121704643688902E+01 -0.587187384722758E-01
C    -0.791800777764569E+00  0.118988348535255E+01 -0.120503854171433E+00
C    -0.146556064746250E+01 -0.311971718313917E-01  0.702434009172446E-01
C    -0.649705833165956E+00 -0.118297560832969E+01  0.236163806188959E+00
C     0.807944400510335E+00 -0.120484937709034E+01 -0.305085557638307E-03
H     0.248718857185769E+01  0.110755218647729E+00 -0.253687536955545E+00
H     0.112351399566200E+01  0.222210603714302E+01 -0.117553435803075E+00
H    -0.121856090774298E+01  0.215084407703805E+01 -0.340544018279245E+00
H    -0.247668241361004E+01 -0.207364156237614E+00  0.491763023759934E-01
H    -0.103012018057623E+01 -0.216543165774682E+01  0.407212219064474E+00
H     0.130951135656743E+01 -0.216028421957839E+01 -0.982455171104918E-01
        12
 C6H6 mdstep=                   18
C     0.146210305580536E+01  0.181007260783943E-01 -0.980531667781519E-01
C     0.618155053364750E+00  0.123164407665083E+01 -0.708047114945444E-01
C    -0.793052818894833E+00  0.118643289391252E+01 -0.129438253410616E+00
C    -0.146706004544864E+01 -0.364355684787935E-01  0.714801546466735E-01
C    -0.642070714912619E+00 -0.118791903896632E+01  0.243048287272334E+00
C     0.809466141761374E+00 -0.120704311147687E+01  0.844674971786428E-02
H     0.249558719898490E+01  0.982640587706304E-01 -0.287848414666718E+00
H     0.110028418298349E+01  0.222774675945958E+01 -0.997403237971535E-01
H    -0.121897392292071E+01  0.214516667977948E+01 -0.316427954428052E+00
H    -0.249619962269700E+01 -0.224708926384426E+00  0.906288691957896E-01
H    -0.103090422492338E+01 -0.215485748993901E+01  0.444267404489375E+00
H     0.129867871192656E+01 -0.214857196907466E+01 -0.124969059297283E+00
        12
 C6H6 mdstep=                   19
C     0.145490150878628E+01  0.206710260740109E-01 -0.990012754490989E-01
C     0.622850622614343E+00  0.124567488846980E+01 -0.825160037358520E-01
C    -0.793260043727642E+00  0.118371270603384E+01 -0.137650399945759E+00
C    -0.146695255253489E+01 -0.425582222556477E-01  0.728133871535240E-01
C    -0.634157937635815E+00 -0.119321331745058E+01  0.249017962432412E+00
C     0.810001416827765E+00 -0.120848709683654E+01  0.167655944644732E-01
H     0.250521251110573E+01  0.877989189086233E-01 -0.317944173037190E+00
H     0.107284064357180E+01  0.221728372269539E+01 -0.839484802904643E-01
H    -0.122713252987410E+01  0.213578628678530E+01 -0.291678569334100E+00
H    -0.252120418105363E+01 -0.234771630075671E+00  0.129816491865157E+00
H    -0.103737797821217E+01 -0.214194848050748E+01  0.478258924878346E+00
H     0.128651323580788E+01 -0.213326467081502E+01 -0.146034179369009E+00
        12
 C6H6 mdstep=                   20
C     0.144772096474871E+01  0.239470235178846E-01 -0.100305973422335E+00
C     0.627768855062611E+00  0.125795861905649E+01 -0.935476076142865E-01
C    -0.792638744263883E+00  0.118142584650219E+01 -0.144900869917348E+00
C    -0.146591116330635E+01 -0.494390679899620E-01  0.743417728866791E-01
C    -0.626463513019850E+00 -0.119844246599108E+01  0.254143718965819E+00
C     0.809394449222617E+00 -0.120871331970417E+01  0.244127901286028E-01
H     0.250843718166835E+01  0.793610436290656E-01 -0.341603421681423E+00
H     0.104757731429241E+01  0.220129894134299E+01 -0.714879047571613E-01
H    -0.124321519306728E+01  0.212563967368036E+01 -0.268086005863448E+00
H    -0.253976578709027E+01 -0.236200057929242E+00  0.165032124689342E+00
H    -0.104858537013799E+01 -0.212978390808152E+01  0.508781615007499E+00
H     0.127709089649716E+01 -0.212059320697339E+01 -0.161182206896312E+00
        12
 C6H6 mdstep=                   21
C     0.144084649535335E+01  0.280072341612976E-01 -0.102207288084158E+00
C     0.632302755629279E+00  0.126765024075499E+01 -0.104183074659738E+00
C    -0.791419986092064E+00  0.117922252845193E+01 -0.151326385909901E+00
C    -0.146425027673391E+01 -0.571344136476862E-01  0.762176163613853E-01
C    -0.619141822161576E+00 -0.120354571000415E+01  0.258738435171271E+00
C     0.807524961547117E+00 -0.120741610979707E+01  0.315591076203024E-01
H     0.250151663328385E+01  0.727708640245769E-01 -0.358302332938664E+00
H     0.103122687940578E+01  0.219415574901080E+01 -0.623393992013903E-01
H    -0.126699876863513E+01  0.211610699099241E+01 -0.245901013900182E+00
H    -0.254545906873892E+01 -0.229028249257373E+00  0.196163886309660E+00
H    -0.106347802217368E+01 -0.211989794445912E+01  0.536780732222527E+00
H     0.127333595706639E+01 -0.211494660603487E+01 -0.171248651916777E+00
        12
 C6H6 mdstep=                   22
C     0.143398332865690E+01  0.331333911983627E-01 -0.104988792697460E+00
C     0.636103303192959E+00  0.127443316686297E+01 -0.115195537207818E+00
C    -0.789757002235472E+00  0.117684854433754E+01 -0.157306293211551E+00
C    -0.146185324988439E+01 -0.659827852816359E-01  0.786634842377543E-01
C    -0.612068072177523E+00 -0.120884366022896E+01  0.263290293483984E+00
C     0.804250820436716E+00 -0.120449511707320E+01  0.386230620428129E-01
H     0.248352943661398E+01  0.678765351999787E-01 -0.368599861895095E+00
H     0.102859065405793E+01  0.220754061880363E+01 -0.557390223320648E-01
H    -0.129843337784228E+01  0.210601600393861E+01 -0.224128793792106E+00
H    -0.253576054975049E+01 -0.213428871336566E+00  0.224413131842166E+00
H    -0.108115487112035E+01 -0.211201211049377E+01  0.563843407889084E+00
H     0.127620857852464E+01 -0.211668964476651E+01 -0.176565945044460E+00
        12
 C6H6 mdstep=                   23
C     0.142658971860348E+01  0.397167253096466E-01 -0.108952341941550E+00
C     0.639143311976879E+00  0.127877949052663E+01 -0.127302679607698E+00
C    -0.787734193460674E+00  0.117420987653451E+01 -0.163116734360117E+00
C    -0.145820206807346E+01 -0.763012942150584E-01  0.819117870882285E-01
C    -0.605218640830186E+00 -0.121477401132822E+01  0.268275262639330E+00
C     0.799438726592995E+00 -0.120005881356079E+01  0.458988622181817E-01
H     0.245619349556868E+01  0.649019241001895E-01 -0.373099202923414E+00
H     0.103962169867087E+01  0.224100660929622E+01 -0.517451488086849E-01
H    -0.133697191849848E+01  0.209255455705789E+01 -0.201910281830975E+00
H    -0.251076543090765E+01 -0.189577762871193E+00  0.250889603846796E+00
H    -0.110023821099787E+01 -0.210514515395424E+01  0.590851501690797E+00
H     0.128512768628058E+01 -0.212247268609495E+01 -0.175830517917657E+00
        12
 C6H6 mdstep=                   24
C     0.141826705497580E+01  0.478435898534199E-01 -0.114154849140673E+00
C     0.641492413637782E+00  0.128176475891209E+01 -0.140435236946377E+00
C    -0.785494156003122E+00  0.117144351545249E+01 -0.168617377798045E+00
C    -0.145255014218306E+01 -0.877343082251745E-01  0.859770909593737E-01
C    -0.599057675597802E+00 -0.122149681451517E+01  0.273898271197656E+00
C     0.793261034755876E+00 -0.119460975253005E+01  0.531826837466566E-01
H     0.242641385033522E+01  0.644586094302489E-01 -0.372684308307645E+00
H     0.105890598225486E+01  0.228029406431780E+01 -0.519859853533367E-01
H    -0.137920837613771E+01  0.207304911959393E+01 -0.179994027705739E+00
H    -0.247610127393033E+01 -0.159493684215242E+00  0.275626589854036E+00
H    -0.111775705860601E+01 -0.209866764207160E+01  0.616699062339249E+00
H     0.129805277618099E+01 -0.212640505178880E+01 -0.166715190783596E+00
        12
 C6H6 mdstep=                   25
C     0.140889572549406E+01  0.570079577476315E-01 -0.120189218672353E+00
C     0.643080851116506E+00  0.128437610550043E+01 -0.153652486723942E+00
C    -0.783300495815537E+00  0.116885599076243E+01 -0.173330466432536E+00
C    -0.144422356730369E+01 -0.991019290996373E-01  0.904853046708786E-01
C    -0.594389577151221E+00 -0.122872317379964E+01  0.279989080765157E+00
C     0.786378443101016E+00 -0.118900008082416E+01  0.598469932425911E-01
H     0.240666333771578E+01  0.669651638795167E-01 -0.369465998270428E+00
H     0.107910567197653E+01  0.230831167949182E+01 -0.581963882461526E-01
H    -0.141859715207528E+01  0.204681366133650E+01 -0.160683795256947E+00
H    -0.244532964260504E+01 -0.127855801739703E+00  0.298441470491122E+00
H    -0.112976853036755E+01 -0.209274527646965E+01  0.638799143925277E+00
H     0.131200164420401E+01 -0.212301733855007E+01 -0.148090958797102E+00
        12
 C6H6 mdstep=                   26
C     0.139872130362813E+01  0.665395137113766E-01 -0.126584210716270E+00
C     0.643833127577999E+00  0.128722199225887E+01 -0.166060788682608E+00
C    -0.781381057087301E+00  0.116661566784704E+01 -0.176893741135094E+00
C    -0.143301483028126E+01 -0.109296023133434E+00  0.949783780201391E-01
C    -0.591750736802975E+00 -0.123603448656310E+01  0.286280672125521E+00
C     0.779560090429059E+00 -0.118390550655957E+01  0.654098700957825E-01
H     0.240474335380389E+01  0.721777104927109E-01 -0.365149012845031E+00
H     0.109477519094468E+01  0.231516601313994E+01 -0.709294930293528E-01
H    -0.144972706074973E+01  0.201561008216005E+01 -0.145988617466647E+00
H    -0.243083451852853E+01 -0.989573879882950E-01  0.319847751789501E+00
H    -0.113388805908213E+01 -0.208844113534292E+01  0.655516818835718E+00
H     0.132464869846680E+01 -0.210998836225124E+01 -0.120767880276068E+00
        12
 C6H6 mdstep=                   27
C     0.138835807535303E+01  0.760227739944143E-01 -0.133193932194387E+00
C     0.643739400859747E+00  0.129050758499186E+01 -0.177365006187517E+00
C    -0.779832360393974E+00  0.116460609293718E+01 -0.179220908593078E+00
C    -0.141949629031925E+01 -0.117803297381660E+00  0.993109828504631E-01
C    -0.591247418222486E+00 -0.124316392573718E+01  0.292640133385788E+00
C     0.773301502387588E+00 -0.117948173760391E+01  0.697765088371504E-01
H     0.241750406651651E+01  0.795435155047524E-01 -0.359348437218944E+00
H     0.110388483109982E+01  0.229980702802165E+01 -0.898567903778888E-01
H    -0.147082036279067E+01  0.198259370586850E+01 -0.136727363755143E+00
H    -0.243272218255800E+01 -0.749399785598530E-01  0.339540962570936E+00
H    -0.113002397563975E+01 -0.208748426505842E+01  0.667020037033353E+00
H     0.133553954309693E+01 -0.208854694353263E+01 -0.863424457626700E-01
        12
 C6H6 mdstep=                   28
C     0.137870435928596E+01  0.851613355516515E-01 -0.140049269644976E+00
C     0.642779328098527E+00  0.129403658420143E+01 -0.187579843015621E+00
C    -0.778660340159175E+00  0.116252491108318E+01 -0.180350048258075E+00
C    -0.140490499546034E+01 -0.124388717266024E+00  0.103602236726579E+00
C    -0.592738549337631E+00 -0.124990725239890E+01  0.298973972041972E+00
C     0.767887364262685E+00 -0.117552855153016E+01  0.730383245328838E-01
H     0.243475437603554E+01  0.885294367509593E-01 -0.350429135665482E+00
H     0.110720408151551E+01  0.226766063300581E+01 -0.114117760847584E+00
H    -0.148278486793606E+01  0.195199238543910E+01 -0.133016097775645E+00
H    -0.244109406512136E+01 -0.572331597613164E-01  0.355530974754493E+00
H    -0.111955931902140E+01 -0.209191800525433E+01  0.674394826623727E+00
H     0.134576412931895E+01 -0.206248701754137E+01 -0.466878066704665E-01
        12
 C6H6 mdstep=                   29
C     0.137047481207718E+01  0.936672537420878E-01 -0.147137482580900E+00
C     0.640842548882499E+00  0.129723045451093E+01 -0.196831375370842E+00
C    -0.777804036012534E+00  0.116001653353023E+01 -0.180370806681878E+00
C    -0.139051279880822E+01 -0.128938676374964E+00  0.108022993191365E+00
C    -0.595910057968768E+00 -0.125609868826913E+01  0.305172787359029E+00
C     0.763452476557608E+00 -0.117168880193092E+01  0.753540555583819E-01
H     0.244731735141523E+01  0.986955505217423E-01 -0.337403432880230E+00
H     0.110795829755814E+01  0.222939274498298E+01 -0.142461517151659E+00
H    -0.148814773840714E+01  0.192842144953743E+01 -0.134564287806361E+00
H    -0.244544412482866E+01 -0.470142689677871E-01  0.365712315140712E+00
H    -0.110459148218309E+01 -0.210334862091603E+01  0.678934046535818E+00
H     0.135727207163961E+01 -0.203688870941322E+01 -0.372551409194067E-02
        12
 C6H6 mdstep=                   30
C     0.136393785657066E+01  0.101389483662935E+00 -0.154477829938428E+00
C     0.637633420116182E+00  0.129923884889059E+01 -0.205432601691687E+00
C    -0.777121735084378E+00  0.115672568788499E+01 -0.179397436604244E+00
C    -0.137699365610494E+01 -0.131527848588331E+00  0.112748301479288E+00
C    -0.600377291072069E+00 -0.126175532799920E+01  0.311223420939283E+00
C     0.759950681499235E+00 -0.116754750970892E+01  0.769383520005153E-01
H     0.244986202204734E+01  0.109849543717795E+00 -0.320097026772659E+00
H     0.111160165612362E+01  0.219903863472572E+01 -0.174025245373719E+00
H    -0.149035280652149E+01  0.191572632649638E+01 -0.140869050038357E+00
H    -0.244010675223071E+01 -0.446689298773099E-01  0.369263965442138E+00
H    -0.108698394764566E+01 -0.212238274670661E+01  0.681705094635575E+00
H     0.137221504566049E+01 -0.201613293390211E+01  0.415918445825593E-01
        12
 C6H6 mdstep=                   31
C     0.135896586015276E+01  0.108336543875147E+00 -0.162179866834502E+00
C     0.632730960718037E+00  0.129929403803723E+01 -0.213836091313775E+00
C    -0.776530823247927E+00  0.115245049360494E+01 -0.177497969638616E+00
C    -0.136443636613743E+01 -0.132327871958943E+00  0.117993853359159E+00
C    -0.605815761899541E+00 -0.126713825269388E+01  0.317259208365450E+00
C     0.757302085868113E+00 -0.116280416950037E+01  0.780170834541226E-01
H     0.244091902087743E+01  0.122108277080097E+00 -0.298726834256069E+00
H     0.112362488295449E+01  0.218890590021879E+01 -0.209185499527199E+00
H    -0.149137555635776E+01  0.191513708022005E+01 -0.151673945017783E+00
H    -0.242361491275445E+01 -0.500338215457356E-01  0.366331565452517E+00
H    -0.106756227652045E+01 -0.214832994615277E+01  0.683072073415086E+00
H     0.139160227748735E+01 -0.200169953638273E+01  0.897500571096057E-01
        12
 C6H6 mdstep=                   32