 Entering Gaussian System, Link 0=g09
 Initial command:
 /data_node1/taka/gaussian/gaussian09-bin/tar/g09/l1.exe /devel_fs/common/gauss_test/scr/Gau-15017.inp -scrdir=/devel_fs/common/gauss_test/scr/
 Entering Link 1 = /data_node1/taka/gaussian/gaussian09-bin/tar/g09/l1.exe PID=     15018.
  
 Copyright (c) 1988,1990,1992,1993,1995,1998,2003,2009,2011,
            Gaussian, Inc.  All Rights Reserved.
  
 This is part of the Gaussian(R) 09 program.  It is based on
 the Gaussian(R) 03 system (copyright 2003, Gaussian, Inc.),
 the Gaussian(R) 98 system (copyright 1998, Gaussian, Inc.),
 the Gaussian(R) 94 system (copyright 1995, Gaussian, Inc.),
 the Gaussian 92(TM) system (copyright 1992, Gaussian, Inc.),
 the Gaussian 90(TM) system (copyright 1990, Gaussian, Inc.),
 the Gaussian 88(TM) system (copyright 1988, Gaussian, Inc.),
 the Gaussian 86(TM) system (copyright 1986, Carnegie Mellon
 University), and the Gaussian 82(TM) system (copyright 1983,
 Carnegie Mellon University). Gaussian is a federally registered
 trademark of Gaussian, Inc.
  
 This software contains proprietary and confidential information,
 including trade secrets, belonging to Gaussian, Inc.
  
 This software is provided under written license and may be
 used, copied, transmitted, or stored only in accord with that
 written license.
  
 The following legend is applicable only to US Government
 contracts under FAR:
  
                    RESTRICTED RIGHTS LEGEND
  
 Use, reproduction and disclosure by the US Government is
 subject to restrictions as set forth in subparagraphs (a)
 and (c) of the Commercial Computer Software - Restricted
 Rights clause in FAR 52.227-19.
  
 Gaussian, Inc.
 340 Quinnipiac St., Bldg. 40, Wallingford CT 06492
  
  
 ---------------------------------------------------------------
 Warning -- This program may not be used in any manner that
 competes with the business of Gaussian, Inc. or will provide
 assistance to any competitor of Gaussian, Inc.  The licensee
 of this program is prohibited from giving any competitor of
 Gaussian, Inc. access to this program.  By using this program,
 the user acknowledges that Gaussian, Inc. is engaged in the
 business of creating and licensing software in the field of
 computational chemistry and represents and warrants to the
 licensee that it is not a competitor of Gaussian, Inc. and that
 it will not use this program in any manner prohibited above.
 ---------------------------------------------------------------
  

 Cite this work as:
 Gaussian 09, Revision C.01,
 M. J. Frisch, G. W. Trucks, H. B. Schlegel, G. E. Scuseria, 
 M. A. Robb, J. R. Cheeseman, G. Scalmani, V. Barone, B. Mennucci, 
 G. A. Petersson, H. Nakatsuji, M. Caricato, X. Li, H. P. Hratchian, 
 A. F. Izmaylov, J. Bloino, G. Zheng, J. L. Sonnenberg, M. Hada, 
 M. Ehara, K. Toyota, R. Fukuda, J. Hasegawa, M. Ishida, T. Nakajima, 
 Y. Honda, O. Kitao, H. Nakai, T. Vreven, J. A. Montgomery, Jr., 
 J. E. Peralta, F. Ogliaro, M. Bearpark, J. J. Heyd, E. Brothers, 
 K. N. Kudin, V. N. Staroverov, T. Keith, R. Kobayashi, J. Normand, 
 K. Raghavachari, A. Rendell, J. C. Burant, S. S. Iyengar, J. Tomasi, 
 M. Cossi, N. Rega, J. M. Millam, M. Klene, J. E. Knox, J. B. Cross, 
 V. Bakken, C. Adamo, J. Jaramillo, R. Gomperts, R. E. Stratmann, 
 O. Yazyev, A. J. Austin, R. Cammi, C. Pomelli, J. W. Ochterski, 
 R. L. Martin, K. Morokuma, V. G. Zakrzewski, G. A. Voth, 
 P. Salvador, J. J. Dannenberg, S. Dapprich, A. D. Daniels, 
 O. Farkas, J. B. Foresman, J. V. Ortiz, J. Cioslowski, 
 and D. J. Fox, Gaussian, Inc., Wallingford CT, 2010.
 
 ******************************************
 Gaussian 09:  EM64L-G09RevC.01 23-Sep-2011
                 3-Feb-2015 
 ******************************************
 ---------------------------------------------------------------------
 #p Sp, B3LYP/STO-3G formcheck pop=full punch=archive scf=Tight nosymm
 ---------------------------------------------------------------------
 1/38=1/1;
 2/12=2,15=1,17=6,18=5,40=1/2;
 3/6=3,11=2,16=1,25=1,30=1,74=-5/1,2,3;
 4//1;
 5/5=2,32=2,38=5/2;
 6/7=3,28=1/1;
 99/5=1,9=1,10=8/99;
 Leave Link    1 at Tue Feb  3 17:13:38 2015, MaxMem=          0 cpu:       0.0
 (Enter /data_node1/taka/gaussian/gaussian09-bin/tar/g09/l101.exe)
 -------
 comment
 -------
 Charge =  0 Multiplicity = 1
 Symbolic Z-Matrix:
 H                     0.67344   0.86976   0. 
 H                     0.67344  -0.86976   0. 
 O                     0.        0.        0. 
 
 NAtoms=      3 NQM=        0 NQMF=       0 NMMI=      3 NMMIF=      0
                NMic=       0 NMicF=      0.
                    Isotopes and Nuclear Properties:
 (Nuclear quadrupole moments (NQMom) in fm**2, nuclear magnetic moments (NMagM)
  in nuclear magnetons)

  Atom         1           2           3
 IAtWgt=           1           1          16
 AtmWgt=   1.0078250   1.0078250  15.9949146
 NucSpn=           1           1           0
 AtZEff=   0.0000000   0.0000000   0.0000000
 NQMom=    0.0000000   0.0000000   0.0000000
 NMagM=    2.7928460   2.7928460   0.0000000
 Leave Link  101 at Tue Feb  3 17:13:38 2015, MaxMem=   33554432 cpu:       0.0
 (Enter /data_node1/taka/gaussian/gaussian09-bin/tar/g09/l202.exe)
                          Input orientation:                          
 ---------------------------------------------------------------------
 Center     Atomic      Atomic             Coordinates (Angstroms)
 Number     Number       Type             X           Y           Z
 ---------------------------------------------------------------------
      1          1           0        0.673439    0.869759    0.000000
      2          1           0        0.673439   -0.869759    0.000000
      3          8           0        0.000000    0.000000    0.000000
 ---------------------------------------------------------------------
                    Distance matrix (angstroms):
                    1          2          3
     1  H    0.000000
     2  H    1.739517   0.000000
     3  O    1.100000   1.100000   0.000000
 Symmetry turned off by external request.
 Stoichiometry    H2O
 Framework group  C2V[C2(O),SGV(H2)]
 Deg. of freedom     2
 Full point group                 C2V     NOp   4
 Rotational constants (GHZ):    622.5165769    331.4398042    216.2853318
 Leave Link  202 at Tue Feb  3 17:13:38 2015, MaxMem=   33554432 cpu:       0.0
 (Enter /data_node1/taka/gaussian/gaussian09-bin/tar/g09/l301.exe)
 Standard basis: STO-3G (5D, 7F)
 Ernie: Thresh=  0.10000D-02 Tol=  0.10000D-05 Strict=F.
 Integral buffers will be    131072 words long.
 Raffenetti 2 integral format.
 Two-electron integral symmetry is turned off.
     7 basis functions,    21 primitive gaussians,     7 cartesian basis functions
     5 alpha electrons        5 beta electrons
       nuclear repulsion energy         8.0013322981 Hartrees.
 IExCor=  402 DFT=T Ex+Corr=B3LYP ExCW=0 ScaHFX=  0.200000
 ScaDFX=  0.800000  0.720000  1.000000  0.810000 ScalE2=  1.000000  1.000000
 IRadAn=      0 IRanWt=     -1 IRanGd=            0 ICorTp=0
 NAtoms=    3 NActive=    3 NUniq=    3 SFac= 1.00D+00 NAtFMM=   60 NAOKFM=F Big=F
 Leave Link  301 at Tue Feb  3 17:13:38 2015, MaxMem=   33554432 cpu:       0.0
 (Enter /data_node1/taka/gaussian/gaussian09-bin/tar/g09/l302.exe)
 NPDir=0 NMtPBC=     1 NCelOv=     1 NCel=       1 NClECP=     1 NCelD=      1
         NCelK=      1 NCelE2=     1 NClLst=     1 CellRange=     0.0.
 One-electron integrals computed using PRISM.
 NBasis=     7 RedAO= T  NBF=     7
 NBsUse=     7 1.00D-06 NBFU=     7
 Precomputing XC quadrature grid using
 IXCGrd= 2 IRadAn=           0 IRanWt=          -1 IRanGd=           0 AccXCQ= 0.00D+00.
 NRdTot=     183 NPtTot=       23214 NUsed=       24547 NTot=       24579
 NSgBfM=     7     7     7     7     7 NAtAll=     3     3.
 Leave Link  302 at Tue Feb  3 17:13:38 2015, MaxMem=   33554432 cpu:       0.1
 (Enter /data_node1/taka/gaussian/gaussian09-bin/tar/g09/l303.exe)
 DipDrv:  MaxL=1.
 Leave Link  303 at Tue Feb  3 17:13:39 2015, MaxMem=   33554432 cpu:       0.0
 (Enter /data_node1/taka/gaussian/gaussian09-bin/tar/g09/l401.exe)
 Harris functional with IExCor=  402 diagonalized for initial guess.
 ExpMin= 1.69D-01 ExpMax= 1.31D+02 ExpMxC= 1.31D+02 IAcc=1 IRadAn=         1 AccDes= 0.00D+00
 HarFok:  IExCor=  402 AccDes= 0.00D+00 IRadAn=         1 IDoV= 1
 ScaDFX=  1.000000  1.000000  1.000000  1.000000
 FoFCou: FMM=F IPFlag=           0 FMFlag=      100000 FMFlg1=           0
         NFxFlg=           0 DoJE=T BraDBF=F KetDBF=T FulRan=T
         Omega=  0.000000  0.000000  1.000000  0.000000  0.000000 ICntrl=     500 IOpCl=  0
         NMat0=    1 NMatS0=    1 NMatT0=    0 NMatD0=    1 NMtDS0=    0 NMtDT0=    0
         I1Cent=           4 NGrid=           0.
 Symmetry not used in FoFCou.
 Harris En= -75.3562176692291    
 Leave Link  401 at Tue Feb  3 17:13:39 2015, MaxMem=   33554432 cpu:       0.1
 (Enter /data_node1/taka/gaussian/gaussian09-bin/tar/g09/l502.exe)
 Closed shell SCF:
 Requested convergence on RMS density matrix=1.00D-08 within 128 cycles.
 Requested convergence on MAX density matrix=1.00D-06.
 Requested convergence on             energy=1.00D-06.
 No special actions if energy rises.
 Using DIIS extrapolation, IDIIS=  1040.
 Two-electron integral symmetry not used.
        24507 words used for storage of precomputed grid.
 Keep R1 ints in memory in canonical form, NReq=890120.
 IEnd=       44234 IEndB=       44234 NGot=    33554432 MDV=    33526867
 LenX=    33526867 LenY=    33525985
 Symmetry not used in FoFDir.
 MinBra= 0 MaxBra= 1 Meth= 1.
 IRaf=       0 NMat=   1 IRICut=       1 DoRegI=T DoRafI=F ISym2E= 0 JSym2E=0.
 Integral accuracy reduced to 1.0D-05 until final iterations.

 Cycle   1  Pass 0  IDiag  1:
 E= -75.2614519895420    
 DIIS: error= 7.06D-02 at cycle   1 NSaved=   1.
 NSaved= 1 IEnMin= 1 EnMin= -75.2614519895420     IErMin= 1 ErrMin= 7.06D-02
 ErrMax= 7.06D-02 EMaxC= 1.00D-01 BMatC= 3.25D-02 BMatP= 3.25D-02
 IDIUse=3 WtCom= 2.94D-01 WtEn= 7.06D-01
 Coeff-Com:  0.100D+01
 Coeff-En:   0.100D+01
 Coeff:      0.100D+01
 Gap=     0.276 Goal=   None    Shift=    0.000
 GapD=    0.276 DampG=1.000 DampE=0.500 DampFc=0.5000 IDamp=-1.
 Damping current iteration by 5.00D-01
 RMSDP=7.71D-02 MaxDP=2.42D-01              OVMax= 0.00D+00

 Cycle   2  Pass 0  IDiag  1:
 E= -75.2856562159225     Delta-E=       -0.024204226381 Rises=F Damp=T
 DIIS: error= 3.55D-03 at cycle   2 NSaved=   2.
 NSaved= 2 IEnMin= 2 EnMin= -75.2856562159225     IErMin= 2 ErrMin= 3.55D-03
 ErrMax= 3.55D-03 EMaxC= 1.00D-01 BMatC= 1.32D-04 BMatP= 3.25D-02
 IDIUse=3 WtCom= 9.65D-01 WtEn= 3.55D-02
 Coeff-Com:  0.350D-01 0.965D+00
 Coeff-En:   0.535D-01 0.946D+00
 Coeff:      0.357D-01 0.964D+00
 Gap=     0.374 Goal=   None    Shift=    0.000
 RMSDP=4.63D-03 MaxDP=9.74D-03 DE=-2.42D-02 OVMax= 0.00D+00

 Cycle   3  Pass 0  IDiag  1:
 E= -75.3119740425857     Delta-E=       -0.026317826663 Rises=F Damp=F
 DIIS: error= 3.78D-04 at cycle   3 NSaved=   3.
 NSaved= 3 IEnMin= 3 EnMin= -75.3119740425857     IErMin= 3 ErrMin= 3.78D-04
 ErrMax= 3.78D-04 EMaxC= 1.00D-01 BMatC= 6.73D-07 BMatP= 1.32D-04
 IDIUse=3 WtCom= 9.96D-01 WtEn= 3.78D-03
 Coeff-Com: -0.500D-02-0.196D-01 0.102D+01
 Coeff-En:   0.000D+00 0.000D+00 0.100D+01
 Coeff:     -0.498D-02-0.195D-01 0.102D+01
 Gap=     0.382 Goal=   None    Shift=    0.000
 RMSDP=1.63D-04 MaxDP=7.35D-04 DE=-2.63D-02 OVMax= 0.00D+00

 Cycle   4  Pass 0  IDiag  1:
 E= -75.3119751043978     Delta-E=       -0.000001061812 Rises=F Damp=F
 DIIS: error= 2.28D-05 at cycle   4 NSaved=   4.
 NSaved= 4 IEnMin= 4 EnMin= -75.3119751043978     IErMin= 4 ErrMin= 2.28D-05
 ErrMax= 2.28D-05 EMaxC= 1.00D-01 BMatC= 2.67D-09 BMatP= 6.73D-07
 IDIUse=1 WtCom= 1.00D+00 WtEn= 0.00D+00
 Coeff-Com:  0.388D-03 0.271D-02-0.133D+00 0.113D+01
 Coeff:      0.388D-03 0.271D-02-0.133D+00 0.113D+01
 Gap=     0.382 Goal=   None    Shift=    0.000
 RMSDP=1.70D-05 MaxDP=5.09D-05 DE=-1.06D-06 OVMax= 0.00D+00

 Cycle   5  Pass 0  IDiag  1:
 E= -75.3119751097517     Delta-E=       -0.000000005354 Rises=F Damp=F
 DIIS: error= 2.24D-06 at cycle   5 NSaved=   5.
 NSaved= 5 IEnMin= 5 EnMin= -75.3119751097517     IErMin= 5 ErrMin= 2.24D-06
 ErrMax= 2.24D-06 EMaxC= 1.00D-01 BMatC= 2.79D-11 BMatP= 2.67D-09
 IDIUse=1 WtCom= 1.00D+00 WtEn= 0.00D+00
 Coeff-Com: -0.576D-04-0.222D-03 0.780D-02-0.537D-01 0.105D+01
 Coeff:     -0.576D-04-0.222D-03 0.780D-02-0.537D-01 0.105D+01
 Gap=     0.382 Goal=   None    Shift=    0.000
 RMSDP=1.21D-06 MaxDP=4.03D-06 DE=-5.35D-09 OVMax= 0.00D+00

 Initial convergence to 1.0D-05 achieved.  Increase integral accuracy.
 Cycle   6  Pass 1  IDiag  1:
 E= -75.3119607084819     Delta-E=        0.000014401270 Rises=F Damp=F
 DIIS: error= 1.48D-06 at cycle   1 NSaved=   1.
 NSaved= 1 IEnMin= 1 EnMin= -75.3119607084819     IErMin= 1 ErrMin= 1.48D-06
 ErrMax= 1.48D-06 EMaxC= 1.00D-01 BMatC= 1.28D-11 BMatP= 1.28D-11
 IDIUse=1 WtCom= 1.00D+00 WtEn= 0.00D+00
 Coeff-Com:  0.100D+01
 Coeff:      0.100D+01
 Gap=     0.382 Goal=   None    Shift=    0.000
 RMSDP=1.21D-06 MaxDP=4.03D-06 DE= 1.44D-05 OVMax= 0.00D+00

 Cycle   7  Pass 1  IDiag  1:
 E= -75.3119607085072     Delta-E=       -0.000000000025 Rises=F Damp=F
 DIIS: error= 4.01D-07 at cycle   2 NSaved=   2.
 NSaved= 2 IEnMin= 2 EnMin= -75.3119607085072     IErMin= 2 ErrMin= 4.01D-07
 ErrMax= 4.01D-07 EMaxC= 1.00D-01 BMatC= 1.71D-12 BMatP= 1.28D-11
 IDIUse=1 WtCom= 1.00D+00 WtEn= 0.00D+00
 Coeff-Com:  0.181D+00 0.819D+00
 Coeff:      0.181D+00 0.819D+00
 Gap=     0.382 Goal=   None    Shift=    0.000
 RMSDP=4.94D-07 MaxDP=1.76D-06 DE=-2.52D-11 OVMax= 0.00D+00

 Cycle   8  Pass 1  IDiag  1:
 E= -75.3119607085088     Delta-E=       -0.000000000002 Rises=F Damp=F
 DIIS: error= 3.71D-07 at cycle   3 NSaved=   3.
 NSaved= 3 IEnMin= 3 EnMin= -75.3119607085088     IErMin= 3 ErrMin= 3.71D-07
 ErrMax= 3.71D-07 EMaxC= 1.00D-01 BMatC= 9.12D-13 BMatP= 1.71D-12
 IDIUse=1 WtCom= 1.00D+00 WtEn= 0.00D+00
 Coeff-Com: -0.224D-01 0.416D+00 0.606D+00
 Coeff:     -0.224D-01 0.416D+00 0.606D+00
 Gap=     0.382 Goal=   None    Shift=    0.000
 RMSDP=1.64D-07 MaxDP=5.76D-07 DE=-1.61D-12 OVMax= 0.00D+00

 Cycle   9  Pass 1  IDiag  1:
 E= -75.3119607085101     Delta-E=       -0.000000000001 Rises=F Damp=F
 DIIS: error= 1.44D-08 at cycle   4 NSaved=   4.
 NSaved= 4 IEnMin= 4 EnMin= -75.3119607085101     IErMin= 4 ErrMin= 1.44D-08
 ErrMax= 1.44D-08 EMaxC= 1.00D-01 BMatC= 8.95D-16 BMatP= 9.12D-13
 IDIUse=1 WtCom= 1.00D+00 WtEn= 0.00D+00
 Coeff-Com: -0.350D-02-0.158D-01-0.443D-01 0.106D+01
 Coeff:     -0.350D-02-0.158D-01-0.443D-01 0.106D+01
 Gap=     0.382 Goal=   None    Shift=    0.000
 RMSDP=8.19D-09 MaxDP=3.31D-08 DE=-1.29D-12 OVMax= 0.00D+00

 SCF Done:  E(RB3LYP) =  -75.3119607085     A.U. after    9 cycles
             Convg  =    0.8190D-08             -V/T =  2.0127
 KE= 7.436550270049D+01 PE=-1.945518484293D+02 EE= 3.687305272214D+01
 Leave Link  502 at Tue Feb  3 17:13:39 2015, MaxMem=   33554432 cpu:       0.3
 (Enter /data_node1/taka/gaussian/gaussian09-bin/tar/g09/l601.exe)
 Copying SCF densities to generalized density rwf, IOpCl= 0 IROHF=0.

 **********************************************************************

            Population analysis using the SCF density.

 **********************************************************************

 Alpha  occ. eigenvalues --  -18.85583  -0.88066  -0.39189  -0.24031  -0.14187
 Alpha virt. eigenvalues --    0.24000   0.33500
     Molecular Orbital Coefficients:
                           1         2         3         4         5
                           O         O         O         O         O
     Eigenvalues --   -18.85583  -0.88066  -0.39189  -0.24031  -0.14187
   1 1   H  1S         -0.00559   0.15775   0.45032   0.33316   0.00000
   2 2   H  1S         -0.00559   0.15775  -0.45032   0.33316   0.00000
   3 3   O  1S          0.99371  -0.23530   0.00000   0.11377   0.00000
   4        2S          0.02725   0.85827   0.00000  -0.55418   0.00000
   5        2PX         0.00344   0.14816   0.00000   0.72502   0.00000
   6        2PY         0.00000   0.00000   0.60967   0.00000   0.00000
   7        2PZ         0.00000   0.00000   0.00000   0.00000   1.00000
                           6         7
                           V         V
     Eigenvalues --     0.24000   0.33500
   1 1   H  1S         -0.70556  -0.73363
   2 2   H  1S         -0.70556   0.73363
   3 3   O  1S         -0.10761   0.00000
   4        2S          0.64752   0.00000
   5        2PX         0.75009   0.00000
   6        2PY         0.00000   0.91834
   7        2PZ         0.00000   0.00000
     Density Matrix:
                           1         2         3         4         5
   1 1   H  1S          0.67740
   2 2   H  1S         -0.13374   0.67740
   3 3   O  1S         -0.00955  -0.00955   2.11153
   4        2S         -0.09878  -0.09878  -0.47583   2.08898
   5        2PX         0.52980   0.52980   0.10208  -0.54908   1.09523
   6        2PY         0.54909  -0.54909   0.00000   0.00000   0.00000
   7        2PZ         0.00000   0.00000   0.00000   0.00000   0.00000
                           6         7
   6        2PY         0.74338
   7        2PZ         0.00000   2.00000
    Full Mulliken population analysis:
                           1         2         3         4         5
   1 1   H  1S          0.67740
   2 2   H  1S         -0.02409   0.67740
   3 3   O  1S         -0.00037  -0.00037   2.11153
   4        2S         -0.03814  -0.03814  -0.11263   2.08898
   5        2PX         0.11049   0.11049   0.00000   0.00000   1.09523
   6        2PY         0.14790   0.14790   0.00000   0.00000   0.00000
   7        2PZ         0.00000   0.00000   0.00000   0.00000   0.00000
                           6         7
   6        2PY         0.74338
   7        2PZ         0.00000   2.00000
     Gross orbital populations:
                           1
   1 1   H  1S          0.87319
   2 2   H  1S          0.87319
   3 3   O  1S          1.99816
   4        2S          1.90007
   5        2PX         1.31622
   6        2PY         1.03918
   7        2PZ         2.00000
          Condensed to atoms (all electrons):
              1          2          3
     1  H    0.677399  -0.024091   0.219880
     2  H   -0.024091   0.677399   0.219880
     3  O    0.219880   0.219880   7.813863
 Mulliken atomic charges:
              1
     1  H    0.126812
     2  H    0.126812
     3  O   -0.253623
 Sum of Mulliken atomic charges =   0.00000
 Mulliken charges with hydrogens summed into heavy atoms:
              1
     3  O    0.000000
 Sum of Mulliken charges with hydrogens summed into heavy atoms =   0.00000
 Electronic spatial extent (au):  <R**2>=             20.2113
 Charge=              0.0000 electrons
 Dipole moment (field-independent basis, Debye):
    X=              1.4358    Y=              0.0000    Z=              0.0000  Tot=              1.4358
 Quadrupole moment (field-independent basis, Debye-Ang):
   XX=             -5.0019   YY=             -4.3458   ZZ=             -6.2135
   XY=              0.0000   XZ=              0.0000   YZ=              0.0000
 Traceless Quadrupole moment (field-independent basis, Debye-Ang):
   XX=              0.1851   YY=              0.8413   ZZ=             -1.0264
   XY=              0.0000   XZ=              0.0000   YZ=              0.0000
 Octapole moment (field-independent basis, Debye-Ang**2):
  XXX=             -2.1910  YYY=              0.0000  ZZZ=              0.0000  XYY=              0.0220
  XXY=              0.0000  XXZ=              0.0000  XZZ=             -0.9290  YZZ=              0.0000
  YYZ=              0.0000  XYZ=              0.0000
 Hexadecapole moment (field-independent basis, Debye-Ang**3):
 XXXX=             -6.3415 YYYY=             -8.0316 ZZZZ=             -3.3656 XXXY=              0.0000
 XXXZ=              0.0000 YYYX=              0.0000 YYYZ=              0.0000 ZZZX=              0.0000
 ZZZY=              0.0000 XXYY=             -1.9141 XXZZ=             -1.7011 YYZZ=             -2.1203
 XXYZ=              0.0000 YYXZ=              0.0000 ZZXY=              0.0000
 N-N= 8.001332298147D+00 E-N=-1.945518482694D+02  KE= 7.436550270049D+01
 Orbital energies and kinetic energies (alpha):
                                 1                 2
   1         O               -18.855835         28.631118
   2         O                -0.880656          2.412127
   3         O                -0.391891          1.411938
   4         O                -0.240312          2.198837
   5         O                -0.141865          2.528731
   6         V                 0.239998          2.500080
   7         V                 0.335000          2.557481
 Total kinetic energy from orbitals= 7.436550270049D+01
 No NMR shielding tensors so no spin-rotation constants.
 Leave Link  601 at Tue Feb  3 17:13:39 2015, MaxMem=   33554432 cpu:       0.1
 (Enter /data_node1/taka/gaussian/gaussian09-bin/tar/g09/l9999.exe)
 1\1\GINC-NODE1\SP\RB3LYP\STO-3G\H2O1\S_NISHINO\03-Feb-2015\0\\#p Sp, B
 3LYP/STO-3G formcheck pop=full punch=archive scf=Tight nosymm\\comment
 \\0,1\H,0,0.67343901,0.86975853,0.\H,0,0.67343901,-0.86975853,0.\O,0,0
 .,0.,0.\\Version=EM64L-G09RevC.01\HF=-75.3119607\RMSD=8.190e-09\Dipole
 =0.5649049,0.,0.\Quadrupole=0.1376487,0.6254691,-0.7631178,0.,0.,0.\PG
 =C02V [C2(O1),SGV(H2)]\\@
 The archive entry for this job was punched.


 THE WISE MAN HAS THE POWER TO REASON AWAY
 WHAT A FOOL BELIEVES.
                     - DOOBIE BROTHERS
 Job cpu time:  0 days  0 hours  0 minutes  0.8 seconds.
 File lengths (MBytes):  RWF=      5 Int=      0 D2E=      0 Chk=      1 Scr=      1
 Normal termination of Gaussian 09 at Tue Feb  3 17:13:40 2015.
