comment                                                                 
SP        RB3LYP                                                      STO-3G              
Number of atoms                            I                3
Info1-9                                    I   N=           9
          10           9           0           0           0         110
           1          18        -502
Charge                                     I                0
Multiplicity                               I                1
Number of electrons                        I               10
Number of alpha electrons                  I                5
Number of beta electrons                   I                5
Number of basis functions                  I                7
Number of independent functions            I                7
Number of point charges in /Mol/           I                0
Number of translation vectors              I                0
Atomic numbers                             I   N=           3
           1           1           8
Nuclear charges                            R   N=           3
  1.00000000E+00  1.00000000E+00  8.00000000E+00
Current cartesian coordinates              R   N=           9
  1.27261530E+00  1.64360542E+00  0.00000000E+00  1.27261530E+00 -1.64360542E+00
  0.00000000E+00  0.00000000E+00  0.00000000E+00  0.00000000E+00
Number of symbols in /Mol/                 I                0
Force Field                                I                0
Atom Types                                 C   N=           3
                                    
Int Atom Types                             I   N=           3
           0           0           0
MM charges                                 R   N=           3
  0.00000000E+00  0.00000000E+00  0.00000000E+00
Integer atomic weights                     I   N=           3
           1           1          16
Real atomic weights                        R   N=           3
  1.00782504E+00  1.00782504E+00  1.59949146E+01
Atom fragment info                         I   N=           3
           0           0           0
Atom residue num                           I   N=           3
           0           0           0
Nuclear spins                              I   N=           3
           1           1           0
Nuclear ZEff                               R   N=           3
 -1.00000000E+00 -1.00000000E+00 -5.60000000E+00
Nuclear QMom                               R   N=           3
  0.00000000E+00  0.00000000E+00  0.00000000E+00
Nuclear GFac                               R   N=           3
  2.79284600E+00  2.79284600E+00  0.00000000E+00
MicOpt                                     I   N=           3
          -1          -1          -1
Number of residues                         I                0
Number of secondary structures             I                0
Number of contracted shells                I                4
Number of primitive shells                 I               12
Pure/Cartesian d shells                    I                0
Pure/Cartesian f shells                    I                0
Highest angular momentum                   I                1
Largest degree of contraction              I                3
Shell types                                I   N=           4
           0           0           0          -1
Number of primitives per shell             I   N=           4
           3           3           3           3
Shell to atom map                          I   N=           4
           1           2           3           3
Primitive exponents                        R   N=          12
  3.42525091E+00  6.23913730E-01  1.68855404E-01  3.42525091E+00  6.23913730E-01
  1.68855404E-01  1.30709321E+02  2.38088661E+01  6.44360831E+00  5.03315132E+00
  1.16959612E+00  3.80388960E-01
Contraction coefficients                   R   N=          12
  1.54328967E-01  5.35328142E-01  4.44634542E-01  1.54328967E-01  5.35328142E-01
  4.44634542E-01  1.54328967E-01  5.35328142E-01  4.44634542E-01 -9.99672292E-02
  3.99512826E-01  7.00115469E-01
P(S=P) Contraction coefficients            R   N=          12
  0.00000000E+00  0.00000000E+00  0.00000000E+00  0.00000000E+00  0.00000000E+00
  0.00000000E+00  0.00000000E+00  0.00000000E+00  0.00000000E+00  1.55916275E-01
  6.07683719E-01  3.91957393E-01
Coordinates of each shell                  R   N=          12
  1.27261530E+00  1.64360542E+00  0.00000000E+00  1.27261530E+00 -1.64360542E+00
  0.00000000E+00  0.00000000E+00  0.00000000E+00  0.00000000E+00  0.00000000E+00
  0.00000000E+00  0.00000000E+00
Constraint Structure                       R   N=           9
  1.27261530E+00  1.64360542E+00  0.00000000E+00  1.27261530E+00 -1.64360542E+00
  0.00000000E+00  0.00000000E+00  0.00000000E+00  0.00000000E+00
Num ILSW                                   I              100
ILSW                                       I   N=         100
           0           0           0           0           2           0
           0           0           3           0         402          -1
           0           0           0           0           0           0
           0           0           0           0           0           0
           1           1           0           0           0           0
           0           0      100000           0          -1           0
           0           0           0           0           0           0
           0           0           0           1           0           0
           0           0           1           0           0           0
           0           0           4          40           0           0
           0           0           5           0           0           0
           0           0           0           0           0           0
           0           0           0           0           0           0
           0           0           0           0           0           0
           0           0           0           0           0           0
           0           0           0           0           0           0
           0           0           0           0
Num RLSW                                   I               40
RLSW                                       R   N=          40
  8.00000000E-01  7.20000000E-01  1.00000000E+00  8.10000000E-01  2.00000000E-01
  0.00000000E+00  0.00000000E+00  1.00000000E+00  0.00000000E+00  0.00000000E+00
  0.00000000E+00  0.00000000E+00  1.00000000E+00  0.00000000E+00  0.00000000E+00
  0.00000000E+00  0.00000000E+00  1.00000000E+00  0.00000000E+00  0.00000000E+00
  0.00000000E+00  0.00000000E+00  1.00000000E+00  0.00000000E+00  0.00000000E+00
  0.00000000E+00  0.00000000E+00  1.00000000E+00  0.00000000E+00  0.00000000E+00
  0.00000000E+00  0.00000000E+00  1.00000000E+00  0.00000000E+00  0.00000000E+00
  0.00000000E+00  0.00000000E+00  0.00000000E+00  1.00000000E+00  1.00000000E+00
MxBond                                     I                2
NBond                                      I   N=           3
           1           1           2
IBond                                      I   N=           6
           3           0           3           0           1           2
RBond                                      R   N=           6
  1.00000000E+00  0.00000000E+00  1.00000000E+00  0.00000000E+00  1.00000000E+00
  1.00000000E+00
Virial Ratio                               R      2.012727111007821E+00
SCF Energy                                 R     -7.531196070851006E+01
Total Energy                               R     -7.531196070851006E+01
RMS Density                                R      8.190096692286900E-09
External E-field                           R   N=          35
  0.00000000E+00  0.00000000E+00  0.00000000E+00  0.00000000E+00  0.00000000E+00
  0.00000000E+00  0.00000000E+00  0.00000000E+00  0.00000000E+00  0.00000000E+00
  0.00000000E+00  0.00000000E+00  0.00000000E+00  0.00000000E+00  0.00000000E+00
  0.00000000E+00  0.00000000E+00  0.00000000E+00  0.00000000E+00  0.00000000E+00
  0.00000000E+00  0.00000000E+00  0.00000000E+00  0.00000000E+00  0.00000000E+00
  0.00000000E+00  0.00000000E+00  0.00000000E+00  0.00000000E+00  0.00000000E+00
  0.00000000E+00  0.00000000E+00  0.00000000E+00  0.00000000E+00  0.00000000E+00
IOpCl                                      I                0
IROHF                                      I                0
Alpha Orbital Energies                     R   N=           7
 -1.88558348E+01 -8.80656180E-01 -3.91891176E-01 -2.40312131E-01 -1.41865185E-01
  2.39998132E-01  3.34999625E-01
Alpha MO coefficients                      R   N=          49
 -5.59127590E-03 -5.59127590E-03  9.93708505E-01  2.72518178E-02  3.44137034E-03
 -6.50157519E-17 -9.98574683E-16  1.57753872E-01  1.57753872E-01 -2.35295048E-01
  8.58271120E-01  1.48157747E-01 -6.66457082E-16  5.27484126E-16  4.50316969E-01
 -4.50316969E-01  9.78622375E-17 -1.11165158E-15  7.55294621E-16  6.09665300E-01
 -1.78527052E-16  3.33161705E-01  3.33161705E-01  1.13765370E-01 -5.54183345E-01
  7.25019443E-01 -2.39301531E-15 -6.06622648E-16 -1.82674025E-16 -2.69696794E-16
  1.47847757E-16 -5.02798652E-16  9.40806287E-16  2.52147347E-17  1.00000000E+00
 -7.05557795E-01 -7.05557795E-01 -1.07613981E-01  6.47524219E-01  7.50092636E-01
  1.85308531E-14 -3.54454081E-16 -7.33626543E-01  7.33626543E-01  2.23168006E-15
 -1.32284205E-14 -1.35616784E-14  9.18337628E-01 -7.75344836E-17
Total SCF Density                          R   N=          28
  6.77399282E-01 -1.33742209E-01  6.77399282E-01 -9.54507712E-03 -9.54507712E-03
  2.11152582E+00 -9.87788956E-02 -9.87788956E-02 -4.75826909E-01  2.08898231E+00
  5.29803861E-01  5.29803861E-01  1.02082081E-01 -5.49080802E-01  1.09523151E+00
  5.49085260E-01 -5.49085260E-01 -2.40743435E-16  1.49322344E-16 -2.74694046E-15
  7.43383556E-01 -7.52750505E-16 -6.05220998E-16 -2.07514290E-15  5.17785867E-16
  1.15141493E-15 -1.67254028E-16  2.00000000E+00
QEq coupling tensors                       R   N=          18
 -7.12005837E-03 -1.12876635E-01 -9.81572622E-02 -1.21091894E-17 -7.75318159E-17
  1.05277321E-01 -7.12005837E-03  1.12876635E-01 -9.81572622E-02 -1.21091894E-17
  7.75318159E-17  1.05277321E-01 -7.17396396E-01 -1.07969189E-14 -2.13136702E+00
  4.88876486E-15  0.00000000E+00  2.84876342E+00
Mulliken Charges                           R   N=           3
  1.26811627E-01  1.26811627E-01 -2.53623255E-01
ONIOM Charges                              I   N=          16
           0           0           0           0           0           0
           0           0           0           0           0           0
           0           0           0           0
ONIOM Multiplicities                       I   N=          16
           1           0           0           0           0           0
           0           0           0           0           0           0
           0           0           0           0
Atom Layers                                I   N=           3
           1           1           1
Atom Modifiers                             I   N=           3
           0           0           0
Force Field                                I                0
Atom Modified Types                        C   N=           3
                                    
Int Atom Modified Types                    I   N=           3
           0           0           0
Link Atoms                                 I   N=           3
           0           0           0
Atom Modified MM Charges                   R   N=           3
  0.00000000E+00  0.00000000E+00  0.00000000E+00
Link Distances                             R   N=          12
  0.00000000E+00  0.00000000E+00  0.00000000E+00  0.00000000E+00  0.00000000E+00
  0.00000000E+00  0.00000000E+00  0.00000000E+00  0.00000000E+00  0.00000000E+00
  0.00000000E+00  0.00000000E+00
Cartesian Gradient                         R   N=           9
  0.00000000E+00  0.00000000E+00  0.00000000E+00  0.00000000E+00  0.00000000E+00
  0.00000000E+00  0.00000000E+00  0.00000000E+00  0.00000000E+00
Dipole Moment                              R   N=           3
  5.64904858E-01 -9.55325771E-15  2.23003248E-16
Quadrupole Moment                          R   N=           6
  1.37648702E-01  6.25469082E-01 -7.63117784E-01 -1.06585523E-14 -4.07446118E-16
  1.38203450E-16
