        12
 C6H6 mdstep=                    0
C     0.140000000000000E+01  0.000000000000000E+00  0.000000000000000E+00
C     0.700000000000002E+00  0.121244000000000E+01  0.000000000000000E+00
C    -0.700000000000002E+00  0.121243000000000E+01  0.000000000000000E+00
C    -0.140000000000000E+01  0.000000000000000E+00  0.000000000000000E+00
C    -0.700000000000002E+00 -0.121244000000000E+01  0.000000000000000E+00
C     0.700000000000002E+00 -0.121243000000000E+01  0.000000000000000E+00
H     0.246000000000001E+01  0.000000000000000E+00  0.000000000000000E+00
H     0.123000000000000E+01  0.213042000000001E+01  0.000000000000000E+00
H    -0.123000000000000E+01  0.213042000000001E+01  0.000000000000000E+00
H    -0.246000000000001E+01  0.000000000000000E+00  0.000000000000000E+00
H    -0.123000000000000E+01 -0.213042000000001E+01  0.000000000000000E+00
H     0.123000000000000E+01 -0.213042000000001E+01  0.000000000000000E+00
        12
 C6H6 mdstep=                    1
C     0.140082845184321E+01  0.380633250563181E-06 -0.376606259859005E-17
C     0.700414134493179E+00  0.121315668592462E+01  0.855716774700288E-17
C    -0.700414209403269E+00  0.121314808491214E+01  0.250647870790808E-17
C    -0.140082845184321E+01 -0.380633250651638E-06 -0.489154304330672E-17
C    -0.700414134493179E+00 -0.121315668592462E+01  0.110201098391482E-16
C     0.700414209403269E+00 -0.121314808491214E+01 -0.117144308199999E-16
H     0.246032711858713E+01  0.717898576210566E-08  0.708025445712330E-18
H     0.123016369422007E+01  0.213070370905172E+01  0.330063900767367E-17
H    -0.123016353344728E+01  0.213070315248580E+01 -0.632304681426127E-18
H    -0.246032711858713E+01 -0.717898575694910E-08 -0.770051026257301E-17
H    -0.123016369422007E+01 -0.213070370905172E+01  0.325057611732135E-17
H     0.123016353344728E+01 -0.213070315248580E+01 -0.638145458870708E-18
        12
 C6H6 mdstep=                    2
C     0.140154320887517E+01  0.667008659050564E-06 -0.497568047812730E-18
C     0.700771445141422E+00  0.121377505714778E+01  0.637486474713015E-17
C    -0.700771574095602E+00  0.121376759592487E+01  0.291654499086688E-17
C    -0.140154320887517E+01 -0.667008659193715E-06 -0.330148686568710E-17
C    -0.700771445141422E+00 -0.121377505714778E+01  0.499709644480021E-17
C     0.700771574095602E+00 -0.121376759592487E+01 -0.143979727480405E-16
H     0.246068365727264E+01  0.179376720285987E-07  0.351173668639196E-17
H     0.123034206493507E+01  0.213101282471391E+01  0.518550229506986E-18
H    -0.123034179211133E+01  0.213101182323179E+01  0.123796430172751E-17
H    -0.246068365727264E+01 -0.179376720342750E-07 -0.395147652708905E-17
H    -0.123034206493507E+01 -0.213101282471391E+01  0.308036895062259E-17
H     0.123034179211133E+01 -0.213101182323179E+01 -0.488622162416876E-18
        12
 C6H6 mdstep=                    3
C     0.140216523739275E+01  0.880096285375856E-06 -0.475887859927556E-17
C     0.701082410540477E+00  0.121431324240081E+01  0.142961306788880E-16
C    -0.701082576292611E+00  0.121430671239431E+01  0.627184835498997E-17
C    -0.140216523739275E+01 -0.880096285440754E-06  0.537403113810627E-17
C    -0.701082410540477E+00 -0.121431324240081E+01 -0.248243451324796E-17
C     0.701082576292611E+00 -0.121430671239431E+01 -0.255470368018188E-16
H     0.246105937770717E+01  0.311741925026173E-07  0.197462103236267E-17
H     0.123052999944362E+01  0.213133849322098E+01  0.227424515039918E-17
H    -0.123052965340573E+01  0.213133713767935E+01 -0.106232548302289E-17
H    -0.246105937770717E+01 -0.311741925003809E-07  0.224572087615564E-18
H    -0.123052999944362E+01 -0.213133849322098E+01  0.445099362900928E-17
H     0.123052965340573E+01 -0.213133713767935E+01 -0.101576667400573E-17
        12
 C6H6 mdstep=                    4
C     0.140271129153248E+01  0.103619613009571E-05 -0.978467062079868E-17
C     0.701355403881046E+00  0.121478572810950E+01  0.194324197078443E-16
C    -0.701355592546919E+00  0.121477996139910E+01  0.138035655882185E-16
C    -0.140271129153248E+01 -0.103619613013041E-05  0.100766854296697E-16
C    -0.701355403881046E+00 -0.121478572810950E+01 -0.692138212441178E-17
C     0.701355592546919E+00 -0.121477996139910E+01 -0.291761020330089E-16
H     0.246144629097538E+01  0.460461212300121E-07 -0.387080969616493E-18
H     0.123072350864553E+01  0.213167380665114E+01  0.736147522132826E-17
H    -0.123072312009050E+01  0.213167217078383E+01 -0.281932600782214E-17
H    -0.246144629097538E+01 -0.460461212186911E-07 -0.328661477382347E-17
H    -0.123072350864553E+01 -0.213167380665114E+01  0.332785826288390E-17
H     0.123072312009050E+01 -0.213167217078383E+01 -0.162682768046320E-17
        12
 C6H6 mdstep=                    5
C     0.140319477028263E+01  0.114801835485412E-05 -0.403474863960475E-17
C     0.701597121417732E+00  0.121520409953710E+01  0.202771339770035E-16
C    -0.701597322083339E+00  0.121519896083003E+01  0.277626833912937E-16
C    -0.140319477028263E+01 -0.114801835486483E-05 -0.109488904195371E-17
C    -0.701597121417732E+00 -0.121520409953710E+01 -0.481206056654967E-17
C     0.701597322083339E+00 -0.121519896083003E+01 -0.281278643183590E-16
H     0.246183820953315E+01  0.619117506013202E-07 -0.428490228761021E-18
H     0.123091950316726E+01  0.213201341522433E+01  0.181730663963671E-17
H    -0.123091909614844E+01  0.213201155874753E+01 -0.484306172126236E-17
H    -0.246183820953315E+01 -0.619117505876694E-07 -0.366705490354176E-17
H    -0.123091950316726E+01 -0.213201341522433E+01 -0.164951458864580E-18
H     0.123091909614844E+01 -0.213201155874753E+01 -0.268400312903705E-17
        12
 C6H6 mdstep=                    6
C     0.140362640284737E+01  0.122549766966094E-05 -0.408377472980474E-17
C     0.701812925085263E+00  0.121557763346725E+01  0.175451946584102E-16
C    -0.701813129375842E+00  0.121557301364933E+01  0.273092327040795E-16
C    -0.140362640284737E+01 -0.122549766968300E-05  0.914213891997938E-17
C    -0.701812925085263E+00 -0.121557763346725E+01 -0.560578818081876E-17
C     0.701813129375842E+00 -0.121557301364933E+01 -0.358428437152501E-16
H     0.246223038140547E+01  0.782851100565053E-07  0.418423268881023E-17
H     0.123111561060976E+01  0.213235321081246E+01  0.186497520771085E-17
H    -0.123111520379650E+01  0.213235118201705E+01 -0.750077120765369E-17
H    -0.246223038140547E+01 -0.782851100531460E-07 -0.358181901935834E-17
H    -0.123111561060976E+01 -0.213235321081246E+01 -0.556569497326563E-18
H     0.123111520379650E+01 -0.213235118201705E+01 -0.287420782877790E-17
        12
 C6H6 mdstep=                    7
C     0.140401479523067E+01  0.127641278236722E-05 -0.195523958580543E-17
C     0.702007115714595E+00  0.121591377085930E+01  0.884653126307923E-17
C    -0.702007317375543E+00  0.121590958181877E+01  0.272204615524810E-16
C    -0.140401479523067E+01 -0.127641278257278E-05  0.426589773536458E-17
C    -0.702007115714595E+00 -0.121591377085930E+01 -0.375091971042314E-17
C     0.702007317375543E+00 -0.121590958181877E+01 -0.227356727760916E-16
H     0.246261919395878E+01  0.948012751664714E-07 -0.185684160476021E-17
H     0.123131002756905E+01  0.213269007066731E+01  0.493839172314708E-17
H    -0.123130963529332E+01  0.213268790856201E+01 -0.245500906734009E-17
H    -0.246261919395878E+01 -0.948012751507209E-07 -0.844962578508036E-17
H    -0.123131002756905E+01 -0.213269007066731E+01 -0.151171307811153E-17
H     0.123130963529332E+01 -0.213268790856201E+01 -0.255626066645953E-17
        12
 C6H6 mdstep=                    8
C     0.140436686524507E+01  0.130686111620673E-05  0.210264609494228E-17
C     0.702183150461850E+00  0.121621849300873E+01  0.616915874556188E-17
C    -0.702183344976756E+00  0.121621466348568E+01  0.334124645887877E-16
C    -0.140436686524507E+01 -0.130686111634909E-05  0.285932917685181E-17
C    -0.702183150461850E+00 -0.121621849300873E+01 -0.249712073600635E-17
C     0.702183344976756E+00 -0.121621466348568E+01 -0.227256001023115E-16
H     0.246300193550051E+01  0.111189464774872E-06 -0.309036522769609E-17
H     0.123150140055331E+01  0.213302165119091E+01  0.581362339129558E-17
H    -0.123150103367079E+01  0.213301938726110E+01 -0.863771330589682E-18
H    -0.246300193550051E+01 -0.111189464763763E-06 -0.888584883725505E-17
H    -0.123150140055331E+01 -0.213302165119091E+01 -0.920156796842797E-17
H     0.123150103367079E+01 -0.213301938726110E+01 -0.309294779515266E-17
        12
 C6H6 mdstep=                    9
C     0.140468818820831E+01  0.132162490516082E-05  0.106630745198199E-17
C     0.702343815586913E+00  0.121649662046963E+01  0.110267254044668E-16
C    -0.702343999842890E+00  0.121649309272980E+01  0.349236753633566E-16
C    -0.140468818820831E+01 -0.132162490527858E-05  0.364507793678937E-17
C    -0.702343815586913E+00 -0.121649662046963E+01 -0.436513535681572E-17
C     0.702343999842890E+00 -0.121649309272980E+01 -0.181932563194711E-16
H     0.246337660433497E+01  0.127252086399820E-06 -0.574963068431561E-17
H     0.123168873061107E+01  0.213334622276876E+01  0.699888943927699E-17
H    -0.123168839720426E+01  0.213334388241207E+01  0.202206432506622E-17
H    -0.246337660433497E+01 -0.127252086380271E-06 -0.891602575481075E-17
H    -0.123168873061107E+01 -0.213334622276876E+01 -0.189946084540180E-16
H     0.123168839720426E+01 -0.213334388241207E+01 -0.346408335150674E-17
        12
 C6H6 mdstep=                   10
C     0.140498327138703E+01  0.132445500642675E-05  0.703404905617491E-17
C     0.702491363613615E+00  0.121675205035906E+01  0.252122607496606E-17
C    -0.702491535615684E+00  0.121674877752944E+01  0.234221940174189E-16
C    -0.140498327138703E+01 -0.132445500660116E-05  0.162268752490840E-17
C    -0.702491363613615E+00 -0.121675205035906E+01 -0.763321984556422E-17
C     0.702491535615684E+00 -0.121674877752944E+01 -0.103934760717841E-16
H     0.246374175640014E+01  0.142848359655712E-06 -0.508695605246963E-17
H     0.123187129723380E+01  0.213366253798278E+01  0.906301953970430E-17
H    -0.123187100318284E+01  0.213366014167619E+01  0.393023982444992E-17
H    -0.246374175640014E+01 -0.142848359633143E-06 -0.913601959672253E-17
H    -0.123187129723380E+01 -0.213366253798278E+01 -0.126715414088433E-16
H     0.123187100318284E+01 -0.213366014167620E+01 -0.267220306223861E-17
        12
 C6H6 mdstep=                   11
C     0.140525577173706E+01  0.131829188439382E-05  0.580178672748457E-17
C     0.702627622146753E+00  0.121698794462680E+01  0.223098723494678E-17
C    -0.702627780778616E+00  0.121698488856177E+01  0.245679291908981E-16
C    -0.140525577173706E+01 -0.131829188457054E-05 -0.560361019235441E-17
C    -0.702627622146752E+00 -0.121698794462680E+01 -0.157489282029066E-16
C     0.702627780778616E+00 -0.121698488856177E+01 -0.402716171897354E-19
H     0.246409638405014E+01  0.157881486586319E-06 -0.314836998529932E-17
H     0.123204859781723E+01  0.213396972676902E+01  0.801405207789353E-17
H    -0.123204834726108E+01  0.213396729101486E+01  0.540264366681765E-17
H    -0.246409638405014E+01 -0.157881486550953E-06 -0.676257908360022E-17
H    -0.123204859781723E+01 -0.213396972676902E+01 -0.124471334910374E-16
H     0.123204834726108E+01 -0.213396729101486E+01 -0.226650632565286E-17
        12
 C6H6 mdstep=                   12
C     0.140550866860150E+01  0.130543829772345E-05  0.179606434158148E-16
C     0.702754080176383E+00  0.121720687937612E+01  0.572035964426696E-17
C    -0.702754225002828E+00  0.121720400894845E+01  0.279494277822521E-16
C    -0.140550866860150E+01 -0.130543829795531E-05 -0.312136557423208E-17
C    -0.702754080176383E+00 -0.121720687937612E+01 -0.268506175231375E-16
C     0.702754225002829E+00 -0.121720400894845E+01  0.660116190221064E-17
H     0.246443981984818E+01  0.172288584204473E-06 -0.553851857277282E-17
H     0.123222029961553E+01  0.213426721321102E+01  0.735217992247907E-17
H    -0.123222009532323E+01  0.213426475130204E+01  0.590616617461613E-17
H    -0.246443981984818E+01 -0.172288584175235E-06 -0.102966398941002E-16
H    -0.123222029961553E+01 -0.213426721321102E+01 -0.222965694225727E-16
H     0.123222009532323E+01 -0.213426475130204E+01 -0.338622785482428E-17
        12
 C6H6 mdstep=                   13
C     0.140574440067560E+01  0.128769464606736E-05  0.187200351481074E-16
C     0.702871956522970E+00  0.121741096328562E+01  0.101804071008533E-17
C    -0.702872087628482E+00  0.121740825301759E+01  0.321778554111606E-16
C    -0.140574440067560E+01 -0.128769464625771E-05  0.489532217908103E-17
C    -0.702871956522970E+00 -0.121741096328562E+01 -0.263921204239242E-16
C     0.702872087628482E+00 -0.121740825301759E+01  0.104784562369511E-16
H     0.246477166036337E+01  0.186032777662969E-06 -0.283524743055889E-17
H     0.123238620168696E+01  0.213455464963678E+01  0.687526940755036E-17
H    -0.123238604535557E+01  0.213455217227407E+01  0.495796199810971E-17
H    -0.246477166036337E+01 -0.186032777633047E-06 -0.149834253075113E-16
H    -0.123238620168696E+01 -0.213455464963678E+01 -0.317751621522531E-16
H     0.123238604535557E+01 -0.213455217227407E+01 -0.313698577679795E-17
        12
 C6H6 mdstep=                   14
C     0.140596497464952E+01  0.126646531131767E-05  0.215724367565003E-16
C     0.702982254128075E+00  0.121760193154164E+01  0.525797034127743E-17
C    -0.702982371986225E+00  0.121759936050822E+01  0.261221598070328E-16
C    -0.140596497464952E+01 -0.126646531153670E-05  0.126243254531987E-16
C    -0.702982254128075E+00 -0.121760193154164E+01 -0.249663086883456E-16
C     0.702982371986225E+00 -0.121759936050822E+01  0.126175495022250E-16
H     0.246509170591834E+01  0.199096989356958E-06 -0.442453335660444E-17
H     0.123254620480631E+01  0.213483186451270E+01  0.494988861184616E-17
H    -0.123254609729927E+01  0.213482938030411E+01  0.105783723723925E-17
H    -0.246509170591834E+01 -0.199096989305560E-06 -0.172785006950423E-16
H    -0.123254620480631E+01 -0.213483186451270E+01 -0.341808111313191E-16
H     0.123254609729927E+01 -0.213482938030411E+01 -0.335201383800816E-17
        12
 C6H6 mdstep=                   15
C     0.140617205141444E+01  0.124284237480645E-05  0.172595994567010E-16
C     0.703085803132311E+00  0.121778122037037E+01 -0.394202281022565E-17
C    -0.703085908500921E+00  0.121777877132017E+01  0.139709564533417E-16
C    -0.140617205141444E+01 -0.124284237503442E-05  0.231628008538571E-16
C    -0.703085803132311E+00 -0.121778122037037E+01 -0.220631199460060E-16
C     0.703085908500921E+00 -0.121777877132017E+01  0.131679744478657E-16
H     0.246539991302662E+01  0.211479062489425E-06  0.755383808477339E-18
H     0.123270028771480E+01  0.213509882131325E+01  0.114578126156612E-16
H    -0.123270022925221E+01  0.213509633717532E+01 -0.751581434989703E-18
H    -0.246539991302662E+01 -0.211479062424648E-06 -0.154401727486834E-16
H    -0.123270028771480E+01 -0.213509882131325E+01 -0.344115016153941E-16
H     0.123270022925221E+01 -0.213509633717532E+01 -0.316612908060505E-17
        12
 C6H6 mdstep=                   16
C     0.140636701449970E+01  0.121767163086822E-05  0.187259477531016E-16
C     0.703183295073571E+00  0.121795002620633E+01 -0.919308237761726E-18
C    -0.703183388911214E+00  0.121794768485654E+01  0.113728131720085E-16
C    -0.140636701449970E+01 -0.121767163111066E-05  0.133678787295100E-16
C    -0.703183295073572E+00 -0.121795002620633E+01 -0.201700422562476E-16
C     0.703183388911214E+00 -0.121794768485654E+01  0.115951282528476E-16
H     0.246569635690759E+01  0.223187936952445E-06 -0.660442260247555E-18
H     0.123284848840303E+01  0.213535558610675E+01  0.112375696046015E-16
H    -0.123284847871312E+01  0.213535310758863E+01 -0.119596563016640E-17
H    -0.246569635690759E+01 -0.223187936900755E-06 -0.102870331201920E-16
H    -0.123284848840303E+01 -0.213535558610675E+01 -0.300464284200928E-16
H     0.123284847871312E+01 -0.213535310758863E+01 -0.302011758736113E-17
        12
 C6H6 mdstep=                   17
C     0.140655102443850E+01  0.119160470645392E-05  0.141168764783040E-16
C     0.703275310053385E+00  0.121810935269419E+01  0.861475908442065E-17
C    -0.703275393453377E+00  0.121810710716491E+01  0.144165755702820E-16
C    -0.140655102443850E+01 -0.119160470661964E-05  0.245262013447857E-16
C    -0.703275310053386E+00 -0.121810935269419E+01 -0.297655502872284E-16
C     0.703275393453378E+00 -0.121810710716491E+01  0.161140545782495E-16
H     0.246598120199350E+01  0.234240656172080E-06 -0.383706378160370E-19
H     0.123299088938489E+01  0.213560230205318E+01  0.813364786745382E-17
H    -0.123299092782435E+01  0.213559983359770E+01 -0.470717338902957E-17
H    -0.246598120199350E+01 -0.234240656107727E-06 -0.179180771222314E-16
H    -0.123299088938489E+01 -0.213560230205318E+01 -0.307421552539460E-16
H     0.123299092782435E+01 -0.213559983359770E+01 -0.275078823324426E-17
        12
 C6H6 mdstep=                   18
C     0.140672506198908E+01  0.116514025203259E-05  0.549195933051340E-17
C     0.703362338334299E+00  0.121826004805515E+01  0.263375391745304E-16
C    -0.703362412472961E+00  0.121825788841508E+01  0.189669224038488E-16
C    -0.140672506198908E+01 -0.116514025216420E-05  0.256214766858555E-16
C    -0.703362338334299E+00 -0.121826004805515E+01 -0.300671820744673E-16
C     0.703362412472962E+00 -0.121825788841508E+01  0.102729056841082E-16
H     0.246625467876789E+01  0.244660030611656E-06  0.649441068430997E-17
H     0.123312760613341E+01  0.213583916937763E+01  0.868273116086324E-17
H    -0.123312769178270E+01  0.213583671453181E+01 -0.101191216350228E-16
H    -0.246625467876789E+01 -0.244660030535164E-06 -0.270428390743495E-16
H    -0.123312760613341E+01 -0.213583916937763E+01 -0.315500813717149E-16
H     0.123312769178270E+01 -0.213583671453181E+01 -0.308872096847500E-17
        12
 C6H6 mdstep=                   19
C     0.140688996252795E+01  0.113865651936073E-05  0.301685090027519E-17
C     0.703444797525831E+00  0.121840283482058E+01  0.252661885587252E-16
C    -0.703444863622291E+00  0.121840075272195E+01  0.232616454383631E-16
C    -0.140688996252795E+01 -0.113865651949449E-05  0.159109025198154E-16
C    -0.703444797525831E+00 -0.121840283482058E+01 -0.196984689296555E-16
C     0.703444863622292E+00 -0.121840075272195E+01  0.121809935720192E-16
H     0.246651706561540E+01  0.254472820492490E-06  0.161749811310854E-17
H     0.123325877801897E+01  0.213606642967761E+01  0.820861943914769E-17
H    -0.123325890975754E+01  0.213606399126237E+01 -0.977305625676039E-17
H    -0.246651706561540E+01 -0.254472820408087E-06 -0.263563328817311E-16
H    -0.123325877801897E+01 -0.213606642967761E+01 -0.311925919639557E-16
H     0.123325890975754E+01 -0.213606399126237E+01 -0.244224850935182E-17
        12
 C6H6 mdstep=                   20
C     0.140704644344697E+01  0.111243713983563E-05  0.371411141881266E-17
C     0.703523046274559E+00  0.121853833351715E+01  0.231425049299698E-16
C    -0.703523105559860E+00  0.121853632190210E+01  0.235284063053583E-16
C    -0.140704644344697E+01 -0.111243713991013E-05  0.232073988694128E-16
C    -0.703523046274559E+00 -0.121853833351714E+01 -0.231920277720945E-16
C     0.703523105559860E+00 -0.121853632190210E+01  0.705982954653570E-17
H     0.246676867463508E+01  0.263708329136649E-06  0.170265537527479E-17
H     0.123338456122671E+01  0.213628435365795E+01  0.952302851141101E-17
H    -0.123338473779224E+01  0.213628193390504E+01 -0.899967131199392E-17
H    -0.246676867463508E+01 -0.263708329043199E-06 -0.273304550728429E-16
H    -0.123338456122671E+01 -0.213628435365795E+01 -0.300549950953546E-16
H     0.123338473779224E+01 -0.213628193390504E+01 -0.230078570448897E-17
        12
 C6H6 mdstep=                   21
C     0.140719512600394E+01  0.108669152706510E-05 -0.111771581702148E-17
C     0.703597395182630E+00  0.121866708155661E+01  0.227433729538080E-16
C    -0.703597448876299E+00  0.121866513442072E+01  0.153341900991663E-16
C    -0.140719512600394E+01 -0.108669152711604E-05  0.327364077781321E-16
C    -0.703597395182630E+00 -0.121866708155661E+01 -0.211417385885036E-16
C     0.703597448876300E+00 -0.121866513442072E+01 -0.267427552680039E-17
H     0.246700984058636E+01  0.272397320646745E-06  0.100366960694469E-16
H     0.123350512323813E+01  0.213649323157454E+01  0.105646501190292E-16
H    -0.123350534327298E+01  0.213649083223715E+01 -0.765470605971016E-17
H    -0.246700984058636E+01 -0.272397320557350E-06 -0.247324693396651E-16
H    -0.123350512323813E+01 -0.213649323157454E+01 -0.311354311605513E-16
H     0.123350534327298E+01 -0.213649083223715E+01 -0.295898052733056E-17
        12
 C6H6 mdstep=                   22
C     0.140733655277367E+01  0.106157102679007E-05 -0.175995010949636E-17
C     0.703668115527913E+00  0.121878954832207E+01  0.296210633495045E-16
C    -0.703668164820496E+00  0.121878766052380E+01  0.891719124879760E-17
C    -0.140733655277367E+01 -0.106157102686739E-05  0.235442602506330E-16
C    -0.703668115527913E+00 -0.121878954832207E+01 -0.228614377089899E-16
C     0.703668164820496E+00 -0.121878766052380E+01 -0.851201581595583E-17
H     0.246724091230913E+01  0.280571193849765E-06  0.154674355762155E-16
H     0.123362063854811E+01  0.213669336581764E+01  0.120205937555065E-16
H    -0.123362090063553E+01  0.213669098825978E+01 -0.958009836628865E-17
H    -0.246724091230913E+01 -0.280571193758815E-06 -0.140045979703530E-16
H    -0.123362063854811E+01 -0.213669336581764E+01 -0.295267978512972E-16
H     0.123362090063553E+01 -0.213669098825978E+01 -0.332564635827608E-17
        12
 C6H6 mdstep=                   23
C     0.140747120160748E+01  0.103718169767574E-05  0.289457320406834E-17
C     0.703735446239532E+00  0.121890614723574E+01  0.346269004474826E-16
C    -0.703735492279854E+00  0.121890431434257E+01  0.431369161391549E-17
C    -0.140747120160748E+01 -0.103718169773547E-05  0.129197312644131E-16
C    -0.703735446239533E+00 -0.121890614723574E+01 -0.253956517379479E-16
C     0.703735492279855E+00 -0.121890431434257E+01 -0.114254109058496E-16
H     0.246746224609651E+01  0.288261358226650E-06  0.112885274725015E-16
H     0.123373128535688E+01  0.213688506518360E+01  0.166997959713190E-16
H    -0.123373158804907E+01  0.213688271045231E+01 -0.758671108889669E-17
H    -0.246746224609651E+01 -0.288261358127251E-06 -0.821795476816015E-17
H    -0.123373128535688E+01 -0.213688506518360E+01 -0.273202178208850E-16
H     0.123373158804907E+01 -0.213688271045231E+01 -0.279727365196074E-17
        12
 C6H6 mdstep=                   24
C     0.140759949681896E+01  0.101359442161708E-05 -0.787974585595177E-17
C     0.703799599487344E+00  0.121901724542866E+01  0.421076567233142E-16
C    -0.703799643373522E+00  0.121901546359281E+01  0.132503633035804E-16
C    -0.140759949681896E+01 -0.101359442160566E-05  0.155631268724916E-16
C    -0.703799599487344E+00 -0.121901724542866E+01 -0.265795891231140E-16
C     0.703799643373523E+00 -0.121901546359281E+01 -0.175566360308006E-16
H     0.246767420060743E+01  0.295498768872886E-06  0.147200703504799E-16
H     0.123383724303078E+01  0.213706864047789E+01  0.154213267668242E-16
H    -0.123383758487051E+01  0.213706630936185E+01 -0.975888606724683E-17
H    -0.246767420060743E+01 -0.295498768785195E-06 -0.562203848154421E-17
H    -0.123383724303078E+01 -0.213706864047789E+01 -0.292403097019653E-16
H     0.123383758487051E+01 -0.213706630936185E+01 -0.442533875606762E-17
        12
 C6H6 mdstep=                   25
C     0.140772181816619E+01  0.990852896459762E-06 -0.927968229881087E-17
C     0.703860765170433E+00  0.121912317150561E+01  0.434049609737756E-16
C    -0.703860807943834E+00  0.121912143736341E+01  0.120845215147276E-16
C    -0.140772181816619E+01 -0.990852896457265E-06  0.130942444654413E-16
C    -0.703860765170433E+00 -0.121912317150561E+01 -0.244424854504628E-16
C     0.703860807943834E+00 -0.121912143736341E+01 -0.168803670579445E-16
H     0.246787713299214E+01  0.302313586362634E-06  0.173522182549762E-16
H     0.123393869016858E+01  0.213724440116706E+01  0.168969724794551E-16
H    -0.123393906970569E+01  0.213724209424396E+01 -0.121028389604426E-16
H    -0.246787713299214E+01 -0.302313586264640E-06 -0.674546230269694E-17
H    -0.123393869016858E+01 -0.213724440116706E+01 -0.297943487746030E-16
H     0.123393906970569E+01 -0.213724209424396E+01 -0.358773284341511E-17
        12
 C6H6 mdstep=                   26
C     0.140783850807992E+01  0.968979948279520E-06 -0.115323687756271E-16
C     0.703919114529124E+00  0.121922422179361E+01  0.311248223561855E-16
C    -0.703919157170622E+00  0.121922253238389E+01  0.189245214371437E-16
C    -0.140783850807992E+01 -0.968979948173463E-06  0.263881816151428E-16
C    -0.703919114529124E+00 -0.121922422179361E+01 -0.316717250456988E-16
C     0.703919157170622E+00 -0.121922253238389E+01 -0.147597449347688E-16
H     0.246807139597219E+01  0.308734934185864E-06  0.224426757704750E-16
H     0.123403580314440E+01  0.213741265285570E+01  0.177408638123432E-16
H    -0.123403621894818E+01  0.213741037053084E+01 -0.133412541424127E-16
H    -0.246807139597219E+01 -0.308734934098644E-06 -0.791769385844333E-17
H    -0.123403580314440E+01 -0.213741265285569E+01 -0.328872004953492E-16
H     0.123403621894818E+01 -0.213741037053084E+01 -0.451107773899020E-17
        12
 C6H6 mdstep=                   27
C     0.140794987749646E+01  0.947982510980821E-06 -0.125115453017334E-16
C     0.703974803059820E+00  0.121932066538424E+01  0.285573965727941E-16
C    -0.703974846487843E+00  0.121931901808209E+01  0.218557895631914E-16
C    -0.140794987749647E+01 -0.947982510879135E-06  0.211532758646447E-16
C    -0.703974803059820E+00 -0.121932066538424E+01 -0.276767838674267E-16
C     0.703974846487843E+00 -0.121931901808209E+01 -0.214778022021705E-16
H     0.246825733567012E+01  0.314790732693454E-06  0.329874570964425E-16
H     0.123412875502483E+01  0.213757369541173E+01  0.144679579019106E-16
H    -0.123412920569322E+01  0.213757143794928E+01 -0.129619191328587E-16
H    -0.246825733567012E+01 -0.314790732616343E-06 -0.395946853225257E-17
H    -0.123412875502483E+01 -0.213757369541172E+01 -0.365907729798551E-16
H     0.123412920569322E+01 -0.213757143794928E+01 -0.384358498268618E-17
        12
 C6H6 mdstep=                   28
C     0.140805621057779E+01  0.927855547631316E-06 -0.182679283255240E-16
C     0.704027972873802E+00  0.121941274821406E+01  0.201897673271138E-16
C    -0.704028017943749E+00  0.121941114067682E+01  0.149759139557159E-16
C    -0.140805621057779E+01 -0.927855547463272E-06  0.491123216060076E-16
C    -0.704027972873802E+00 -0.121941274821406E+01 -0.399310098085136E-16
C     0.704028017943749E+00 -0.121941114067682E+01 -0.152511185072779E-16
H     0.246843529002716E+01  0.320507591861649E-06  0.351053049377478E-16
H     0.123421771477962E+01  0.213772782159995E+01  0.129532953867978E-16
H    -0.123421819894585E+01  0.213772558914849E+01 -0.187129484915050E-16
H    -0.246843529002716E+01 -0.320507591777341E-06 -0.121200203904413E-18
H    -0.123421771477962E+01 -0.213772782159995E+01 -0.359423203172475E-16
H     0.123421819894585E+01 -0.213772558914849E+01 -0.411007755941035E-17
