       143
 Au_nano_wire mdstep=           0
Au    0.203909999999999E+01  0.144186143751749E+01  0.144186143751749E+01
Au    0.407819999999997E+01  0.000000000000000E+00  0.000000000000000E+00
Au    0.611729999999998E+01  0.144186143751749E+01  0.144186143751749E+01
Au    0.000000000000000E+00  0.288372287503497E+01  0.000000000000000E+00
Au    0.203909999999999E+01  0.432558431255247E+01  0.144186143751749E+01
Au    0.407819999999997E+01  0.288372287503497E+01  0.000000000000000E+00
Au    0.611729999999998E+01  0.432558431255247E+01  0.144186143751749E+01
Au    0.815639999999995E+01  0.288372287503497E+01  0.000000000000000E+00
Au    0.101955000000000E+02  0.432558431255247E+01  0.144186143751749E+01
Au    0.000000000000000E+00  0.576744575006995E+01  0.000000000000000E+00
Au    0.203909999999999E+01  0.720930718758745E+01  0.144186143751749E+01
Au    0.407819999999997E+01  0.576744575006995E+01  0.000000000000000E+00
Au    0.611729999999998E+01  0.720930718758745E+01  0.144186143751749E+01
Au    0.815639999999995E+01  0.576744575006995E+01  0.000000000000000E+00
Au    0.407819999999997E+01  0.865116862510492E+01  0.000000000000000E+00
Au    0.203909999999999E+01  0.144186143751749E+01  0.432558431255247E+01
Au    0.407819999999997E+01  0.000000000000000E+00  0.288372287503498E+01
Au    0.611729999999998E+01  0.144186143751749E+01  0.432558431255247E+01
Au    0.000000000000000E+00  0.288372287503497E+01  0.288372287503498E+01
Au    0.203909999999999E+01  0.432558431255247E+01  0.432558431255247E+01
Au    0.407819999999997E+01  0.288372287503497E+01  0.288372287503498E+01
Au    0.611729999999998E+01  0.432558431255247E+01  0.432558431255247E+01
Au    0.815639999999995E+01  0.288372287503497E+01  0.288372287503498E+01
Au    0.101955000000000E+02  0.432558431255247E+01  0.432558431255247E+01
Au    0.000000000000000E+00  0.576744575006995E+01  0.288372287503498E+01
Au    0.203909999999999E+01  0.720930718758745E+01  0.432558431255247E+01
Au    0.407819999999997E+01  0.576744575006995E+01  0.288372287503498E+01
Au    0.611729999999998E+01  0.720930718758745E+01  0.432558431255247E+01
Au    0.815639999999995E+01  0.576744575006995E+01  0.288372287503498E+01
Au    0.407819999999997E+01  0.865116862510492E+01  0.288372287503498E+01
Au    0.203909999999999E+01  0.144186143751749E+01  0.720930718758744E+01
Au    0.407819999999997E+01  0.000000000000000E+00  0.576744575006996E+01
Au    0.611729999999998E+01  0.144186143751749E+01  0.720930718758744E+01
Au    0.000000000000000E+00  0.288372287503497E+01  0.576744575006996E+01
Au    0.203909999999999E+01  0.432558431255247E+01  0.720930718758744E+01
Au    0.407819999999997E+01  0.288372287503497E+01  0.576744575006996E+01
Au    0.611729999999998E+01  0.432558431255247E+01  0.720930718758744E+01
Au    0.815639999999995E+01  0.288372287503497E+01  0.576744575006996E+01
Au    0.101955000000000E+02  0.432558431255247E+01  0.720930718758744E+01
Au    0.000000000000000E+00  0.576744575006995E+01  0.576744575006996E+01
Au    0.203909999999999E+01  0.720930718758745E+01  0.720930718758744E+01
Au    0.407819999999997E+01  0.576744575006995E+01  0.576744575006996E+01
Au    0.611729999999998E+01  0.720930718758745E+01  0.720930718758744E+01
Au    0.815639999999995E+01  0.576744575006995E+01  0.576744575006996E+01
Au    0.407819999999997E+01  0.865116862510492E+01  0.576744575006996E+01
Au    0.203909999999999E+01  0.144186143751749E+01  0.100930300626224E+02
Au    0.407819999999997E+01  0.000000000000000E+00  0.865116862510493E+01
Au    0.611729999999998E+01  0.144186143751749E+01  0.100930300626224E+02
Au    0.000000000000000E+00  0.288372287503497E+01  0.865116862510493E+01
Au    0.203909999999999E+01  0.432558431255247E+01  0.100930300626224E+02
Au    0.407819999999997E+01  0.288372287503497E+01  0.865116862510493E+01
Au    0.611729999999998E+01  0.432558431255247E+01  0.100930300626224E+02
Au    0.815639999999995E+01  0.288372287503497E+01  0.865116862510493E+01
Au    0.101955000000000E+02  0.432558431255247E+01  0.100930300626224E+02
Au    0.000000000000000E+00  0.576744575006995E+01  0.865116862510493E+01
Au    0.203909999999999E+01  0.720930718758745E+01  0.100930300626224E+02
Au    0.407819999999997E+01  0.576744575006995E+01  0.865116862510493E+01
Au    0.611729999999998E+01  0.720930718758745E+01  0.100930300626224E+02
Au    0.815639999999995E+01  0.576744575006995E+01  0.865116862510493E+01
Au    0.407819999999997E+01  0.865116862510492E+01  0.865116862510493E+01
Au    0.203909999999999E+01  0.144186143751749E+01  0.129767529376574E+02
Au    0.407819999999997E+01  0.000000000000000E+00  0.115348915001399E+02
Au    0.611729999999998E+01  0.144186143751749E+01  0.129767529376574E+02
Au    0.000000000000000E+00  0.288372287503497E+01  0.115348915001399E+02
Au    0.203909999999999E+01  0.432558431255247E+01  0.129767529376574E+02
Au    0.407819999999997E+01  0.288372287503497E+01  0.115348915001399E+02
Au    0.611729999999998E+01  0.432558431255247E+01  0.129767529376574E+02
Au    0.815639999999995E+01  0.288372287503497E+01  0.115348915001399E+02
Au    0.101955000000000E+02  0.432558431255247E+01  0.129767529376574E+02
Au    0.000000000000000E+00  0.576744575006995E+01  0.115348915001399E+02
Au    0.203909999999999E+01  0.720930718758745E+01  0.129767529376574E+02
Au    0.407819999999997E+01  0.576744575006995E+01  0.115348915001399E+02
Au    0.611729999999998E+01  0.720930718758745E+01  0.129767529376574E+02
Au    0.815639999999995E+01  0.576744575006995E+01  0.115348915001399E+02
Au    0.407819999999997E+01  0.865116862510492E+01  0.115348915001399E+02
Au    0.203909999999999E+01  0.144186143751749E+01  0.158604758126924E+02
Au    0.407819999999997E+01  0.000000000000000E+00  0.144186143751749E+02
Au    0.611729999999998E+01  0.144186143751749E+01  0.158604758126924E+02
Au    0.000000000000000E+00  0.288372287503497E+01  0.144186143751749E+02
Au    0.203909999999999E+01  0.432558431255247E+01  0.158604758126924E+02
Au    0.407819999999997E+01  0.288372287503497E+01  0.144186143751749E+02
Au    0.611729999999998E+01  0.432558431255247E+01  0.158604758126924E+02
Au    0.815639999999995E+01  0.288372287503497E+01  0.144186143751749E+02
Au    0.101955000000000E+02  0.432558431255247E+01  0.158604758126924E+02
Au    0.000000000000000E+00  0.576744575006995E+01  0.144186143751749E+02
Au    0.203909999999999E+01  0.720930718758745E+01  0.158604758126924E+02
Au    0.407819999999997E+01  0.576744575006995E+01  0.144186143751749E+02
Au    0.611729999999998E+01  0.720930718758745E+01  0.158604758126924E+02
Au    0.815639999999995E+01  0.576744575006995E+01  0.144186143751749E+02
Au    0.407819999999997E+01  0.865116862510492E+01  0.144186143751749E+02
Au    0.203909999999999E+01  0.144186143751749E+01  0.187441986877274E+02
Au    0.407819999999997E+01  0.000000000000000E+00  0.173023372502099E+02
Au    0.611729999999998E+01  0.144186143751749E+01  0.187441986877274E+02
Au    0.000000000000000E+00  0.288372287503497E+01  0.173023372502099E+02
Au    0.203909999999999E+01  0.432558431255247E+01  0.187441986877274E+02
Au    0.407819999999997E+01  0.288372287503497E+01  0.173023372502099E+02
Au    0.611729999999998E+01  0.432558431255247E+01  0.187441986877274E+02
Au    0.815639999999995E+01  0.288372287503497E+01  0.173023372502099E+02
Au    0.101955000000000E+02  0.432558431255247E+01  0.187441986877274E+02
Au    0.000000000000000E+00  0.576744575006995E+01  0.173023372502099E+02
Au    0.203909999999999E+01  0.720930718758745E+01  0.187441986877274E+02
Au    0.407819999999997E+01  0.576744575006995E+01  0.173023372502099E+02
Au    0.611729999999998E+01  0.720930718758745E+01  0.187441986877274E+02
Au    0.815639999999995E+01  0.576744575006995E+01  0.173023372502099E+02
Au    0.407819999999997E+01  0.865116862510492E+01  0.173023372502099E+02
Au    0.203909999999999E+01  0.144186143751749E+01  0.216279215627623E+02
Au    0.407819999999997E+01  0.000000000000000E+00  0.201860601252448E+02
Au    0.611729999999998E+01  0.144186143751749E+01  0.216279215627623E+02
Au    0.000000000000000E+00  0.288372287503497E+01  0.201860601252448E+02
Au    0.203909999999999E+01  0.432558431255247E+01  0.216279215627623E+02
Au    0.407819999999997E+01  0.288372287503497E+01  0.201860601252448E+02
Au    0.611729999999998E+01  0.432558431255247E+01  0.216279215627623E+02
Au    0.815639999999995E+01  0.288372287503497E+01  0.201860601252448E+02
Au    0.101955000000000E+02  0.432558431255247E+01  0.216279215627623E+02
Au    0.000000000000000E+00  0.576744575006995E+01  0.201860601252448E+02
Au    0.203909999999999E+01  0.720930718758745E+01  0.216279215627623E+02
Au    0.407819999999997E+01  0.576744575006995E+01  0.201860601252448E+02
Au    0.611729999999998E+01  0.720930718758745E+01  0.216279215627623E+02
Au    0.815639999999995E+01  0.576744575006995E+01  0.201860601252448E+02
Au    0.407819999999997E+01  0.865116862510492E+01  0.201860601252448E+02
Au    0.203909999999999E+01  0.144186143751749E+01  0.245116444377973E+02
Au    0.407819999999997E+01  0.000000000000000E+00  0.230697830002798E+02
Au    0.611729999999998E+01  0.144186143751749E+01  0.245116444377973E+02
Au    0.000000000000000E+00  0.288372287503497E+01  0.230697830002798E+02
Au    0.203909999999999E+01  0.432558431255247E+01  0.245116444377973E+02
Au    0.407819999999997E+01  0.288372287503497E+01  0.230697830002798E+02
Au    0.611729999999998E+01  0.432558431255247E+01  0.245116444377973E+02
Au    0.815639999999995E+01  0.288372287503497E+01  0.230697830002798E+02
Au    0.101955000000000E+02  0.432558431255247E+01  0.245116444377973E+02
Au    0.000000000000000E+00  0.576744575006995E+01  0.230697830002798E+02
Au    0.203909999999999E+01  0.720930718758745E+01  0.245116444377973E+02
Au    0.407819999999997E+01  0.576744575006995E+01  0.230697830002798E+02
Au    0.611729999999998E+01  0.720930718758745E+01  0.245116444377973E+02
Au    0.815639999999995E+01  0.576744575006995E+01  0.230697830002798E+02
Au    0.407819999999997E+01  0.865116862510492E+01  0.230697830002798E+02
Au    0.407819999999997E+01  0.000000000000000E+00  0.259535058753148E+02
Au    0.000000000000000E+00  0.288372287503497E+01  0.259535058753148E+02
Au    0.407819999999997E+01  0.288372287503497E+01  0.259535058753148E+02
Au    0.815639999999995E+01  0.288372287503497E+01  0.259535058753148E+02
Au    0.000000000000000E+00  0.576744575006995E+01  0.259535058753148E+02
Au    0.407819999999997E+01  0.576744575006995E+01  0.259535058753148E+02
Au    0.815639999999995E+01  0.576744575006995E+01  0.259535058753148E+02
Au    0.407819999999997E+01  0.865116862510492E+01  0.259535058753148E+02
       143
 Au_nano_wire mdstep=           1
Au    0.203997746803071E+01  0.143854890693692E+01  0.143990052617750E+01
Au    0.407690566106618E+01 -0.136288486114376E-02 -0.868185999883409E-03
Au    0.611824990099478E+01  0.144324580540211E+01  0.144613122094152E+01
Au    0.106023274662622E-01  0.287650133067730E+01  0.248748142469454E-03
Au    0.203274158434007E+01  0.432546053552695E+01  0.144246947482883E+01
Au    0.408332189207898E+01  0.287675957212216E+01  0.215999767778421E-02
Au    0.611511130803448E+01  0.432227076102431E+01  0.144640102636504E+01
Au    0.816001019965790E+01  0.287961708590225E+01  0.719781095415834E-02
Au    0.101933605053272E+02  0.432248584033651E+01  0.143871342243525E+01
Au   -0.752408982430647E-03  0.576196187320264E+01  0.116133702663131E-02
Au    0.204199585126075E+01  0.720621472085038E+01  0.143314824514853E+01
Au    0.407470846083724E+01  0.575990330428207E+01  0.568542116090936E-02
Au    0.611714590282397E+01  0.720541479013672E+01  0.143583034225070E+01
Au    0.815851740557180E+01  0.576412261022072E+01  0.607222695417632E-02
Au    0.408034490098589E+01  0.864948037605405E+01  0.384069868008350E-02
Au    0.204218624808097E+01  0.143898577430792E+01  0.433539763874489E+01
Au    0.408160070660662E+01  0.385445461203247E-02  0.288140504559263E+01
Au    0.611768746547635E+01  0.145119099981590E+01  0.431893612457310E+01
Au   -0.164589609291447E-02  0.288723523976193E+01  0.288438609110335E+01
Au    0.204055655977658E+01  0.432366129049776E+01  0.432933118026395E+01
Au    0.408891763046529E+01  0.288397344761327E+01  0.287601010666795E+01
Au    0.611755185885301E+01  0.432814437168717E+01  0.432758909321552E+01
Au    0.816510262686176E+01  0.288554553067657E+01  0.288875980376408E+01
Au    0.101940210743904E+02  0.431998636107597E+01  0.432105561779628E+01
Au   -0.972677825167980E-02  0.576478377191015E+01  0.287875458687982E+01
Au    0.204236584937949E+01  0.720950436861992E+01  0.432166564875831E+01
Au    0.407103852917341E+01  0.576492368207244E+01  0.287911813203207E+01
Au    0.611633333208332E+01  0.720617019880207E+01  0.432825036278960E+01
Au    0.816046180626174E+01  0.577167850569040E+01  0.288621489975662E+01
Au    0.408227876310837E+01  0.865551093433628E+01  0.287969164162721E+01
Au    0.203492206436644E+01  0.143324992604521E+01  0.720954114194031E+01
Au    0.407770195860834E+01 -0.397551947456216E-02  0.576830775390734E+01
Au    0.612988683979531E+01  0.143186457515333E+01  0.719822691768514E+01
Au   -0.553074352166292E-02  0.287519453448473E+01  0.576270839646785E+01
Au    0.204954475686181E+01  0.432699704789791E+01  0.721378997146774E+01
Au    0.407769007168462E+01  0.288064908674926E+01  0.576505992199387E+01
Au    0.612359012549608E+01  0.433544942848051E+01  0.720649053006078E+01
Au    0.815151526485838E+01  0.288266346547734E+01  0.576613862537857E+01
Au    0.101994019644157E+02  0.432630893278110E+01  0.720385413866563E+01
Au    0.437807508420318E-02  0.577246731172641E+01  0.576131268717182E+01
Au    0.203848149577416E+01  0.720394794335276E+01  0.720706564322305E+01
Au    0.407182378327693E+01  0.575880298588073E+01  0.576339371108988E+01
Au    0.611313853810594E+01  0.720872407544290E+01  0.720886333703592E+01
Au    0.815946814949539E+01  0.576540508331911E+01  0.575913763548753E+01
Au    0.408436122836574E+01  0.866042321063226E+01  0.576501769929110E+01
Au    0.204191280499820E+01  0.144079957400125E+01  0.100916735063661E+02
Au    0.407813002917007E+01 -0.356297529042803E-02  0.864734256869350E+01
Au    0.611465085815647E+01  0.144385216443791E+01  0.100947283845055E+02
Au   -0.279620183658465E-02  0.288903870255785E+01  0.864814517903555E+01
Au    0.203233713111357E+01  0.432359468093864E+01  0.100986241771881E+02
Au    0.407811466175010E+01  0.288872558797792E+01  0.865363619896379E+01
Au    0.612251126579642E+01  0.432131011502747E+01  0.100874401712917E+02
Au    0.815922704879053E+01  0.288358966283585E+01  0.865046621754701E+01
Au    0.101928167228628E+02  0.432697382428584E+01  0.101010196426412E+02
Au   -0.103822603507016E-02  0.577558576983508E+01  0.865461782108698E+01
Au    0.204821697794223E+01  0.720993557716366E+01  0.100949084281937E+02
Au    0.407071913542913E+01  0.576464063867691E+01  0.865501820823746E+01
Au    0.610924986136364E+01  0.720462248829282E+01  0.100981263933636E+02
Au    0.815829234780398E+01  0.577038908186694E+01  0.864111725659102E+01
Au    0.407902878658933E+01  0.865640012761772E+01  0.865639728026976E+01
Au    0.203205027498493E+01  0.144820453509609E+01  0.129796674573035E+02
Au    0.407679698750540E+01  0.158254798348268E-02  0.115344153833921E+02
Au    0.611546335202251E+01  0.144557936233234E+01  0.129794409772065E+02
Au   -0.417217273836859E-02  0.288494848757123E+01  0.115389903123916E+02
Au    0.204283031131036E+01  0.433037913045528E+01  0.129612026484836E+02
Au    0.407909867684892E+01  0.288547789053842E+01  0.115354811240772E+02
Au    0.611582876650246E+01  0.433145061682293E+01  0.129689310136989E+02
Au    0.816395081926643E+01  0.288377802019769E+01  0.115397369510122E+02
Au    0.101926489418383E+02  0.432361240967267E+01  0.129784378923587E+02
Au    0.740575263315907E-02  0.577287728142368E+01  0.115260427562735E+02
Au    0.203450412732249E+01  0.720551329559250E+01  0.129779149656750E+02
Au    0.407896760160045E+01  0.577375929580598E+01  0.115346965181082E+02
Au    0.612469490875052E+01  0.720173733834911E+01  0.129816094559338E+02
Au    0.815838292988421E+01  0.576302241396453E+01  0.115406629557419E+02
Au    0.406950732029035E+01  0.865665439799062E+01  0.115390357805601E+02
Au    0.203747927544086E+01  0.144904046771267E+01  0.158637037840323E+02
Au    0.407440689237020E+01 -0.494723172795499E-02  0.144172849110931E+02
Au    0.611011190702352E+01  0.144251616612196E+01  0.158583463187479E+02
Au    0.554852717385452E-02  0.288136628794108E+01  0.144218725620095E+02
Au    0.203871280124165E+01  0.433022261479126E+01  0.158605437977359E+02
Au    0.407877831772614E+01  0.288927141032238E+01  0.144192708488302E+02
Au    0.611198543275533E+01  0.432546392290060E+01  0.158623918775793E+02
Au    0.815242413946213E+01  0.288387591359267E+01  0.144209977433681E+02
Au    0.101955850713422E+02  0.432451161115727E+01  0.158574572571778E+02
Au    0.529311093957274E-02  0.575780547629511E+01  0.144124036162666E+02
Au    0.203597942344937E+01  0.720788376237923E+01  0.158636407095974E+02
Au    0.407620241744127E+01  0.577295770017693E+01  0.144186255197476E+02
Au    0.611418151145941E+01  0.720729228617500E+01  0.158634483735831E+02
Au    0.815947110876859E+01  0.577102099201617E+01  0.144241889116022E+02
Au    0.407334363486066E+01  0.865131008443193E+01  0.144125793405932E+02
Au    0.204025469135718E+01  0.144769513494645E+01  0.187448392557778E+02
Au    0.407436706129170E+01  0.122968823829076E-01  0.172993791397117E+02
Au    0.611558727417901E+01  0.144812709268337E+01  0.187479796648836E+02
Au   -0.103161238313064E-02  0.288468762012598E+01  0.173046039274187E+02
Au    0.203949783325008E+01  0.433395051911708E+01  0.187543965601588E+02
Au    0.407878521253170E+01  0.288776031738707E+01  0.172943486507830E+02
Au    0.611675254752744E+01  0.432751724099246E+01  0.187401094023662E+02
Au    0.815504653949793E+01  0.288027128639892E+01  0.173022534772004E+02
Au    0.101994630893580E+02  0.433168682666555E+01  0.187419364554304E+02
Au   -0.565741760358366E-03  0.576439425957600E+01  0.173030272292727E+02
Au    0.203743922843128E+01  0.720666431956347E+01  0.187402741397915E+02
Au    0.407768435499260E+01  0.577172242253671E+01  0.172989704489403E+02
Au    0.611495772046580E+01  0.720774425618609E+01  0.187467257077643E+02
Au    0.814781413007382E+01  0.576941552185054E+01  0.173057250188405E+02
Au    0.407811716986559E+01  0.865006364798440E+01  0.173048013660327E+02
Au    0.203817339957409E+01  0.145504510337272E+01  0.216276770369395E+02
Au    0.406618689299203E+01 -0.332024092979281E-03  0.201865052711714E+02
Au    0.612202044259808E+01  0.145042251499613E+01  0.216289260736338E+02
Au   -0.636936606490653E-02  0.288702680551570E+01  0.201881298872392E+02
Au    0.204116306039097E+01  0.432456494103079E+01  0.216288378713022E+02
Au    0.407449944730196E+01  0.288203371560818E+01  0.201925246812262E+02
Au    0.611812347399878E+01  0.431801391427637E+01  0.216317454800755E+02
Au    0.815227721759156E+01  0.289142670089164E+01  0.201929977802963E+02
Au    0.102029521134777E+02  0.432533848894498E+01  0.216242985535146E+02
Au   -0.202796643498605E-02  0.576902274190236E+01  0.201874250384763E+02
Au    0.203987170521412E+01  0.720041425752225E+01  0.216236201737822E+02
Au    0.407725200133941E+01  0.576519345944815E+01  0.201984728181358E+02
Au    0.611408624051219E+01  0.721266885568849E+01  0.216379528159326E+02
Au    0.815616280942815E+01  0.577034603872978E+01  0.201883851424784E+02
Au    0.408381066204554E+01  0.864975059653805E+01  0.201818286927115E+02
Au    0.203897612416523E+01  0.143890759555092E+01  0.245086818348330E+02
Au    0.408752975888924E+01  0.209913248113099E-04  0.230711840979011E+02
Au    0.611559110949162E+01  0.143541811971942E+01  0.245129062518663E+02
Au    0.174416966063089E-02  0.288235927937632E+01  0.230781589252326E+02
Au    0.203922936112033E+01  0.433027956806056E+01  0.245128833875623E+02
Au    0.407660926110985E+01  0.287646238669725E+01  0.230606922635289E+02
Au    0.611865973996176E+01  0.432422605893686E+01  0.245077837093332E+02
Au    0.815919760378856E+01  0.287657649760824E+01  0.230645055305804E+02
Au    0.101992805989201E+02  0.432577936435251E+01  0.245031315290941E+02
Au    0.673923690232836E-02  0.577196515752283E+01  0.230723111842412E+02
Au    0.204014668378488E+01  0.720225358209477E+01  0.245041328525440E+02
Au    0.408155121371359E+01  0.577111752057827E+01  0.230708827008643E+02
Au    0.611749616258708E+01  0.720554521668997E+01  0.245105815671705E+02
Au    0.816062351837760E+01  0.576194661090821E+01  0.230717267584308E+02
Au    0.408017863914110E+01  0.864214337040949E+01  0.230760673372484E+02
Au    0.407210586570357E+01  0.108497423833694E-01  0.259591975460464E+02
Au   -0.505743879888456E-02  0.288380734495895E+01  0.259504596002972E+02
Au    0.408303083185339E+01  0.287885666408049E+01  0.259583847902667E+02
Au    0.815262131774285E+01  0.289115206149804E+01  0.259591583792351E+02
Au    0.202718024314268E-02  0.576329354952502E+01  0.259563659787983E+02
Au    0.406378525521389E+01  0.576535796505735E+01  0.259517790976997E+02
Au    0.815466361447922E+01  0.576925740661257E+01  0.259478696391725E+02
Au    0.407903887759663E+01  0.864803802673555E+01  0.259482777664405E+02
       143
 Au_nano_wire mdstep=           2
Au    0.204082739852911E+01  0.143540859758440E+01  0.143802235412332E+01
Au    0.407561835456760E+01 -0.240698053606331E-02 -0.142006072851634E-02
Au    0.611934809391681E+01  0.144486515364429E+01  0.145042988223679E+01
Au    0.214117660507670E-01  0.286937277644530E+01  0.813144410890820E-03
Au    0.202656756285538E+01  0.432532392887534E+01  0.144296351530574E+01
Au    0.408842741298417E+01  0.287009800354167E+01  0.450688445466608E-02
Au    0.611278598848696E+01  0.431896881731691E+01  0.145078942594801E+01
Au    0.816338626871988E+01  0.287549335862659E+01  0.147557572952238E-01
Au    0.101910255884949E+02  0.431938850589465E+01  0.143594094439195E+01
Au   -0.129848365989363E-02  0.575638562817130E+01  0.263467704128093E-02
Au    0.204485743028835E+01  0.720296100686255E+01  0.142451091398427E+01
Au    0.407121162471430E+01  0.575206186732495E+01  0.115567410589790E-01
Au    0.611712578780407E+01  0.720127641374918E+01  0.142984716492890E+01
Au    0.816039950990995E+01  0.576081486008171E+01  0.125098141339960E-01
Au    0.408249774111673E+01  0.864747297626737E+01  0.799935044487677E-02
Au    0.204527402467783E+01  0.143612083146234E+01  0.434521637108196E+01
Au    0.408499620509013E+01  0.802247976167429E-02  0.287929338585510E+01
Au    0.611819744094265E+01  0.146061723659785E+01  0.431237777168752E+01
Au   -0.295100643243306E-02  0.289075998915177E+01  0.288526250426732E+01
Au    0.204218976862331E+01  0.432172842603546E+01  0.433306544663972E+01
Au    0.409954405794005E+01  0.288453721717814E+01  0.286844052728162E+01
Au    0.611759957106994E+01  0.433071069843345E+01  0.432962306620199E+01
Au    0.817354321456840E+01  0.288722907235167E+01  0.289388092718918E+01
Au    0.101922821236662E+02  0.431439163492952E+01  0.431660300886525E+01
Au   -0.191127638994968E-01  0.576210451046964E+01  0.287400464709967E+01
Au    0.204563249344271E+01  0.720969914612783E+01  0.431777979797495E+01
Au    0.406384833182769E+01  0.576209941025695E+01  0.287464890332934E+01
Au    0.611548170708153E+01  0.720291576471369E+01  0.433098089238037E+01
Au    0.816425949015157E+01  0.577604700164246E+01  0.288879199358123E+01
Au    0.408635896883791E+01  0.865952692476809E+01  0.287586802073074E+01
Au    0.203074912670825E+01  0.142467929534692E+01  0.720977236908066E+01
Au    0.407721478803717E+01 -0.769116678693085E-02  0.576912033483386E+01
Au    0.614258624724353E+01  0.142201796148360E+01  0.718716801550866E+01
Au   -0.108199817998769E-01  0.286666437622797E+01  0.575795579686523E+01
Au    0.206014862597490E+01  0.432838634179511E+01  0.721829570838652E+01
Au    0.407715811540191E+01  0.287791001895899E+01  0.576266527957721E+01
Au    0.612963610627991E+01  0.434528320167247E+01  0.720372283044715E+01
Au    0.814643771112917E+01  0.288142195067767E+01  0.576479054498067E+01
Au    0.102030691938895E+02  0.432703186763111E+01  0.719835332419026E+01
Au    0.898258104546661E-02  0.577749691306772E+01  0.575515623205407E+01
Au    0.203788121089160E+01  0.719858421177388E+01  0.720480961795261E+01
Au    0.406542818502410E+01  0.574985222593011E+01  0.575932087223225E+01
Au    0.610910632695178E+01  0.720801771354105E+01  0.720842287931490E+01
Au    0.816233164413484E+01  0.576355213955081E+01  0.575078390776555E+01
Au    0.409051596277190E+01  0.866940215208955E+01  0.576255173180158E+01
Au    0.204471676032421E+01  0.143975055105063E+01  0.100903272532649E+02
Au    0.407806673148741E+01 -0.683475200859391E-02  0.864354060348284E+01
Au    0.611215608261114E+01  0.144595203880269E+01  0.100963946538256E+02
Au   -0.534809495191768E-02  0.289434745464274E+01  0.864511353807004E+01
Au    0.202577290828899E+01  0.432160047736865E+01  0.101041839762033E+02
Au    0.407800739519631E+01  0.289403106612530E+01  0.865607078289350E+01
Au    0.612751001882315E+01  0.431705201433339E+01  0.100818412762779E+02
Au    0.816184348953286E+01  0.288327882638500E+01  0.864978617328902E+01
Au    0.101899027074153E+02  0.432836722669823E+01  0.101089742740115E+02
Au   -0.183671953513054E-02  0.578372420500323E+01  0.865805204975280E+01
Au    0.205731579922609E+01  0.721056113007623E+01  0.100967889316011E+02
Au    0.406322649004664E+01  0.576152050506743E+01  0.865884885713235E+01
Au    0.610136565724785E+01  0.719981824212766E+01  0.101031977110933E+02
Au    0.815997587833597E+01  0.577350402933723E+01  0.863111179143523E+01
Au    0.407985221525350E+01  0.866134805957407E+01  0.866163039475130E+01
Au    0.202501735424448E+01  0.145454626659179E+01  0.129825796183458E+02
Au    0.407538316933613E+01  0.344119872383704E-02  0.115339432212894E+02
Au    0.611377037827934E+01  0.144941269244322E+01  0.129821236349612E+02
Au   -0.811384057714709E-02  0.288617063926119E+01  0.115430770188342E+02
Au    0.204676018797128E+01  0.433516222871654E+01  0.129456854088092E+02
Au    0.407996069482489E+01  0.288755244407887E+01  0.115360845588584E+02
Au    0.611414100954275E+01  0.433729768707133E+01  0.129611249604295E+02
Au    0.817126808490966E+01  0.288364941158002E+01  0.115445918284536E+02
Au    0.101895805968798E+02  0.432164195533461E+01  0.129801365650506E+02
Au    0.150245817203720E-01  0.577831253948961E+01  0.115171951630209E+02
Au    0.202990504918218E+01  0.720172385718504E+01  0.129790839768316E+02
Au    0.407970868760625E+01  0.577974108127727E+01  0.115345151601612E+02
Au    0.613221565307237E+01  0.719407333742439E+01  0.129864612186704E+02
Au    0.816014679019944E+01  0.575878472467314E+01  0.115464281939519E+02
Au    0.406081931957587E+01  0.866186639801158E+01  0.115431870071235E+02
Au    0.203585688562768E+01  0.145621821017923E+01  0.158669100271170E+02
Au    0.407060023478066E+01 -0.960358124715680E-02  0.144159513043046E+02
Au    0.610308943324125E+01  0.144327816911105E+01  0.158562360662948E+02
Au    0.113267275943448E-01  0.287901591891567E+01  0.144251327179163E+02
Au    0.203851697588468E+01  0.433485522801573E+01  0.158606265376057E+02
Au    0.407931020419375E+01  0.289513862872662E+01  0.144199000761979E+02
Au    0.610647085941470E+01  0.432534856853011E+01  0.158643046621216E+02
Au    0.814823050283799E+01  0.288386029137481E+01  0.144233649843879E+02
Au    0.101954356647473E+02  0.432344149760021E+01  0.158544627920813E+02
Au    0.108156874754429E-01  0.574817049496148E+01  0.144062010075667E+02
Au    0.203285802076410E+01  0.720646315298052E+01  0.158667845516015E+02
Au    0.407417052447807E+01  0.577813918210426E+01  0.144186224914061E+02
Au    0.611121384868108E+01  0.720517792564714E+01  0.158664273500941E+02
Au    0.816232561908675E+01  0.577475820964868E+01  0.144297534484075E+02
Au    0.406848433614885E+01  0.865117605793140E+01  0.144065547730292E+02
Au    0.204140589290150E+01  0.145356033526561E+01  0.187454947589532E+02
Au    0.407053319181979E+01  0.248553850831653E-01  0.172964040467353E+02
Au    0.611400364800362E+01  0.145451969437025E+01  0.187517644590502E+02
Au   -0.182483836923114E-02  0.288565396827028E+01  0.173068797255321E+02
Au    0.204010841582662E+01  0.434229430794421E+01  0.187645439699099E+02
Au    0.407932040635671E+01  0.289213838732552E+01  0.172864033022193E+02
Au    0.611597497224233E+01  0.432944852446730E+01  0.187360004229787E+02
Au    0.815348560654429E+01  0.287665688683453E+01  0.173021483480235E+02
Au    0.102031857418069E+02  0.433778190987557E+01  0.187397270732963E+02
Au   -0.901200269346094E-03  0.576134419512381E+01  0.173037151328326E+02
Au    0.203578929546194E+01  0.720400696595550E+01  0.187363758274744E+02
Au    0.407712607066572E+01  0.577565791773013E+01  0.172956348666588E+02
Au    0.611275649148154E+01  0.720605050896999E+01  0.187492726013459E+02
Au    0.813903739631537E+01  0.577155025957970E+01  0.173090818735008E+02
Au    0.407802818052671E+01  0.864868757843059E+01  0.173072299666322E+02
Au    0.203723595216635E+01  0.146821062348593E+01  0.216273936294751E+02
Au    0.405418998028996E+01 -0.402492528659594E-03  0.201870003631153E+02
Au    0.612685428301742E+01  0.145906440217738E+01  0.216298470801099E+02
Au   -0.125064211755530E-01  0.289030722306802E+01  0.201902285222012E+02
Au    0.204339250386026E+01  0.432354705851616E+01  0.216297649898625E+02
Au    0.407077747934173E+01  0.288068964966322E+01  0.201989752777741E+02
Au    0.611874181553794E+01  0.431048603606139E+01  0.216355228292678E+02
Au    0.814796170695855E+01  0.289894662203144E+01  0.201999596241299E+02
Au    0.102101300855784E+02  0.432509804791277E+01  0.216206012246362E+02
Au   -0.383267712434920E-02  0.577062406813047E+01  0.201888243421409E+02
Au    0.204064890974773E+01  0.719154034043250E+01  0.216192745267201E+02
Au    0.407628388269243E+01  0.576260363034786E+01  0.202108792300862E+02