           2
 H2 mdstep=           0
H     0.000000000000000E+00  0.000000000000000E+00  0.000000000000000E+00
H     0.741000000000000E+00  0.000000000000000E+00  0.000000000000000E+00
