         512
 Si.diamind.structure mdstep=           0
Si    0.000000000000000E+00  0.000000000000000E+00  0.000000000000000E+00
Si    0.137500000000000E+01  0.137500000000000E+01  0.137500000000000E+01
Si    0.000000000000000E+00  0.275000000000000E+01  0.275000000000000E+01
Si    0.137500000000000E+01  0.412500000000000E+01  0.412500000000000E+01
Si    0.275000000000000E+01  0.000000000000000E+00  0.275000000000000E+01
Si    0.412500000000000E+01  0.275000000000000E+01  0.412500000000000E+01
Si    0.275000000000000E+01  0.275000000000000E+01  0.000000000000000E+00
Si    0.412500000000000E+01  0.412500000000000E+01  0.137500000000000E+01
Si    0.550000000000000E+01  0.000000000000000E+00  0.000000000000000E+00
Si    0.687500000000000E+01  0.137500000000000E+01  0.137500000000000E+01
Si    0.550000000000000E+01  0.275000000000000E+01  0.275000000000000E+01
Si    0.687500000000000E+01  0.412500000000000E+01  0.412500000000000E+01
Si    0.825000000000000E+01  0.000000000000000E+00  0.275000000000000E+01
Si    0.962500000000000E+01  0.275000000000000E+01  0.412500000000000E+01
Si    0.825000000000000E+01  0.275000000000000E+01  0.000000000000000E+00
Si    0.962500000000000E+01  0.412500000000000E+01  0.137500000000000E+01
Si    0.110000000000000E+02  0.000000000000000E+00  0.000000000000000E+00
Si    0.123750000000000E+02  0.137500000000000E+01  0.137500000000000E+01
Si    0.110000000000000E+02  0.275000000000000E+01  0.275000000000000E+01
Si    0.123750000000000E+02  0.412500000000000E+01  0.412500000000000E+01
Si    0.137500000000000E+02  0.000000000000000E+00  0.275000000000000E+01
Si    0.151250000000000E+02  0.275000000000000E+01  0.412500000000000E+01
Si    0.137500000000000E+02  0.275000000000000E+01  0.000000000000000E+00
Si    0.151250000000000E+02  0.412500000000000E+01  0.137500000000000E+01
Si    0.165000000000000E+02  0.000000000000000E+00  0.000000000000000E+00
Si    0.178750000000000E+02  0.137500000000000E+01  0.137500000000000E+01
Si    0.165000000000000E+02  0.275000000000000E+01  0.275000000000000E+01
Si    0.178750000000000E+02  0.412500000000000E+01  0.412500000000000E+01
Si    0.192500000000000E+02  0.000000000000000E+00  0.275000000000000E+01
Si    0.206250000000000E+02  0.275000000000000E+01  0.412500000000000E+01
Si    0.192500000000000E+02  0.275000000000000E+01  0.000000000000000E+00
Si    0.206250000000000E+02  0.412500000000000E+01  0.137500000000000E+01
Si    0.000000000000000E+00  0.550000000000000E+01  0.000000000000000E+00
Si    0.137500000000000E+01  0.687500000000000E+01  0.137500000000000E+01
Si    0.000000000000000E+00  0.825000000000000E+01  0.275000000000000E+01
Si    0.137500000000000E+01  0.962500000000000E+01  0.412500000000000E+01
Si    0.275000000000000E+01  0.550000000000000E+01  0.275000000000000E+01
Si    0.412500000000000E+01  0.825000000000000E+01  0.412500000000000E+01
Si    0.275000000000000E+01  0.825000000000000E+01  0.000000000000000E+00
Si    0.412500000000000E+01  0.962500000000000E+01  0.137500000000000E+01
Si    0.550000000000000E+01  0.550000000000000E+01  0.000000000000000E+00
Si    0.687500000000000E+01  0.687500000000000E+01  0.137500000000000E+01
Si    0.550000000000000E+01  0.825000000000000E+01  0.275000000000000E+01
Si    0.687500000000000E+01  0.962500000000000E+01  0.412500000000000E+01
Si    0.825000000000000E+01  0.550000000000000E+01  0.275000000000000E+01
Si    0.962500000000000E+01  0.825000000000000E+01  0.412500000000000E+01
Si    0.825000000000000E+01  0.825000000000000E+01  0.000000000000000E+00
Si    0.962500000000000E+01  0.962500000000000E+01  0.137500000000000E+01
Si    0.110000000000000E+02  0.550000000000000E+01  0.000000000000000E+00
Si    0.123750000000000E+02  0.687500000000000E+01  0.137500000000000E+01
Si    0.110000000000000E+02  0.825000000000000E+01  0.275000000000000E+01
Si    0.123750000000000E+02  0.962500000000000E+01  0.412500000000000E+01
Si    0.137500000000000E+02  0.550000000000000E+01  0.275000000000000E+01
Si    0.151250000000000E+02  0.825000000000000E+01  0.412500000000000E+01
Si    0.137500000000000E+02  0.825000000000000E+01  0.000000000000000E+00
Si    0.151250000000000E+02  0.962500000000000E+01  0.137500000000000E+01
Si    0.165000000000000E+02  0.550000000000000E+01  0.000000000000000E+00
Si    0.178750000000000E+02  0.687500000000000E+01  0.137500000000000E+01
Si    0.165000000000000E+02  0.825000000000000E+01  0.275000000000000E+01
Si    0.178750000000000E+02  0.962500000000000E+01  0.412500000000000E+01
Si    0.192500000000000E+02  0.550000000000000E+01  0.275000000000000E+01
Si    0.206250000000000E+02  0.825000000000000E+01  0.412500000000000E+01
Si    0.192500000000000E+02  0.825000000000000E+01  0.000000000000000E+00
Si    0.206250000000000E+02  0.962500000000000E+01  0.137500000000000E+01
Si    0.000000000000000E+00  0.110000000000000E+02  0.000000000000000E+00
Si    0.137500000000000E+01  0.123750000000000E+02  0.137500000000000E+01
Si    0.000000000000000E+00  0.137500000000000E+02  0.275000000000000E+01
Si    0.137500000000000E+01  0.151250000000000E+02  0.412500000000000E+01
Si    0.275000000000000E+01  0.110000000000000E+02  0.275000000000000E+01
Si    0.412500000000000E+01  0.137500000000000E+02  0.412500000000000E+01
Si    0.275000000000000E+01  0.137500000000000E+02  0.000000000000000E+00
Si    0.412500000000000E+01  0.151250000000000E+02  0.137500000000000E+01
Si    0.550000000000000E+01  0.110000000000000E+02  0.000000000000000E+00
Si    0.687500000000000E+01  0.123750000000000E+02  0.137500000000000E+01
Si    0.550000000000000E+01  0.137500000000000E+02  0.275000000000000E+01
Si    0.687500000000000E+01  0.151250000000000E+02  0.412500000000000E+01
Si    0.825000000000000E+01  0.110000000000000E+02  0.275000000000000E+01
Si    0.962500000000000E+01  0.137500000000000E+02  0.412500000000000E+01
Si    0.825000000000000E+01  0.137500000000000E+02  0.000000000000000E+00
Si    0.962500000000000E+01  0.151250000000000E+02  0.137500000000000E+01
Si    0.110000000000000E+02  0.110000000000000E+02  0.000000000000000E+00
Si    0.123750000000000E+02  0.123750000000000E+02  0.137500000000000E+01
Si    0.110000000000000E+02  0.137500000000000E+02  0.275000000000000E+01
Si    0.123750000000000E+02  0.151250000000000E+02  0.412500000000000E+01
Si    0.137500000000000E+02  0.110000000000000E+02  0.275000000000000E+01
Si    0.151250000000000E+02  0.137500000000000E+02  0.412500000000000E+01
Si    0.137500000000000E+02  0.137500000000000E+02  0.000000000000000E+00
Si    0.151250000000000E+02  0.151250000000000E+02  0.137500000000000E+01
Si    0.165000000000000E+02  0.110000000000000E+02  0.000000000000000E+00
Si    0.178750000000000E+02  0.123750000000000E+02  0.137500000000000E+01
Si    0.165000000000000E+02  0.137500000000000E+02  0.275000000000000E+01
Si    0.178750000000000E+02  0.151250000000000E+02  0.412500000000000E+01
Si    0.192500000000000E+02  0.110000000000000E+02  0.275000000000000E+01
Si    0.206250000000000E+02  0.137500000000000E+02  0.412500000000000E+01
Si    0.192500000000000E+02  0.137500000000000E+02  0.000000000000000E+00
Si    0.206250000000000E+02  0.151250000000000E+02  0.137500000000000E+01
Si    0.000000000000000E+00  0.165000000000000E+02  0.000000000000000E+00
Si    0.137500000000000E+01  0.178750000000000E+02  0.137500000000000E+01
Si    0.000000000000000E+00  0.192500000000000E+02  0.275000000000000E+01
Si    0.137500000000000E+01  0.206250000000000E+02  0.412500000000000E+01
Si    0.275000000000000E+01  0.165000000000000E+02  0.275000000000000E+01
Si    0.412500000000000E+01  0.192500000000000E+02  0.412500000000000E+01
Si    0.275000000000000E+01  0.192500000000000E+02  0.000000000000000E+00
Si    0.412500000000000E+01  0.206250000000000E+02  0.137500000000000E+01
Si    0.550000000000000E+01  0.165000000000000E+02  0.000000000000000E+00
Si    0.687500000000000E+01  0.178750000000000E+02  0.137500000000000E+01
Si    0.550000000000000E+01  0.192500000000000E+02  0.275000000000000E+01
Si    0.687500000000000E+01  0.206250000000000E+02  0.412500000000000E+01
Si    0.825000000000000E+01  0.165000000000000E+02  0.275000000000000E+01
Si    0.962500000000000E+01  0.192500000000000E+02  0.412500000000000E+01
Si    0.825000000000000E+01  0.192500000000000E+02  0.000000000000000E+00
Si    0.962500000000000E+01  0.206250000000000E+02  0.137500000000000E+01
Si    0.110000000000000E+02  0.165000000000000E+02  0.000000000000000E+00
Si    0.123750000000000E+02  0.178750000000000E+02  0.137500000000000E+01
Si    0.110000000000000E+02  0.192500000000000E+02  0.275000000000000E+01
Si    0.123750000000000E+02  0.206250000000000E+02  0.412500000000000E+01
Si    0.137500000000000E+02  0.165000000000000E+02  0.275000000000000E+01
Si    0.151250000000000E+02  0.192500000000000E+02  0.412500000000000E+01
Si    0.137500000000000E+02  0.192500000000000E+02  0.000000000000000E+00
Si    0.151250000000000E+02  0.206250000000000E+02  0.137500000000000E+01
Si    0.165000000000000E+02  0.165000000000000E+02  0.000000000000000E+00
Si    0.178750000000000E+02  0.178750000000000E+02  0.137500000000000E+01
Si    0.165000000000000E+02  0.192500000000000E+02  0.275000000000000E+01
Si    0.178750000000000E+02  0.206250000000000E+02  0.412500000000000E+01
Si    0.192500000000000E+02  0.165000000000000E+02  0.275000000000000E+01
Si    0.206250000000000E+02  0.192500000000000E+02  0.412500000000000E+01
Si    0.192500000000000E+02  0.192500000000000E+02  0.000000000000000E+00
Si    0.206250000000000E+02  0.206250000000000E+02  0.137500000000000E+01
Si    0.000000000000000E+00  0.000000000000000E+00  0.550000000000000E+01
Si    0.137500000000000E+01  0.137500000000000E+01  0.687500000000000E+01
Si    0.000000000000000E+00  0.275000000000000E+01  0.825000000000000E+01
Si    0.137500000000000E+01  0.412500000000000E+01  0.962500000000000E+01
Si    0.275000000000000E+01  0.000000000000000E+00  0.825000000000000E+01
Si    0.412500000000000E+01  0.275000000000000E+01  0.962500000000000E+01
Si    0.275000000000000E+01  0.275000000000000E+01  0.550000000000000E+01
Si    0.412500000000000E+01  0.412500000000000E+01  0.687500000000000E+01
Si    0.550000000000000E+01  0.000000000000000E+00  0.550000000000000E+01
Si    0.687500000000000E+01  0.137500000000000E+01  0.687500000000000E+01
Si    0.550000000000000E+01  0.275000000000000E+01  0.825000000000000E+01
Si    0.687500000000000E+01  0.412500000000000E+01  0.962500000000000E+01
Si    0.825000000000000E+01  0.000000000000000E+00  0.825000000000000E+01
Si    0.962500000000000E+01  0.275000000000000E+01  0.962500000000000E+01
Si    0.825000000000000E+01  0.275000000000000E+01  0.550000000000000E+01
Si    0.962500000000000E+01  0.412500000000000E+01  0.687500000000000E+01
Si    0.110000000000000E+02  0.000000000000000E+00  0.550000000000000E+01
Si    0.123750000000000E+02  0.137500000000000E+01  0.687500000000000E+01
Si    0.110000000000000E+02  0.275000000000000E+01  0.825000000000000E+01
Si    0.123750000000000E+02  0.412500000000000E+01  0.962500000000000E+01
Si    0.137500000000000E+02  0.000000000000000E+00  0.825000000000000E+01
Si    0.151250000000000E+02  0.275000000000000E+01  0.962500000000000E+01
Si    0.137500000000000E+02  0.275000000000000E+01  0.550000000000000E+01
Si    0.151250000000000E+02  0.412500000000000E+01  0.687500000000000E+01
Si    0.165000000000000E+02  0.000000000000000E+00  0.550000000000000E+01
Si    0.178750000000000E+02  0.137500000000000E+01  0.687500000000000E+01
Si    0.165000000000000E+02  0.275000000000000E+01  0.825000000000000E+01
Si    0.178750000000000E+02  0.412500000000000E+01  0.962500000000000E+01
Si    0.192500000000000E+02  0.000000000000000E+00  0.825000000000000E+01
Si    0.206250000000000E+02  0.275000000000000E+01  0.962500000000000E+01
Si    0.192500000000000E+02  0.275000000000000E+01  0.550000000000000E+01
Si    0.206250000000000E+02  0.412500000000000E+01  0.687500000000000E+01
Si    0.000000000000000E+00  0.550000000000000E+01  0.550000000000000E+01
Si    0.137500000000000E+01  0.687500000000000E+01  0.687500000000000E+01
Si    0.000000000000000E+00  0.825000000000000E+01  0.825000000000000E+01
Si    0.137500000000000E+01  0.962500000000000E+01  0.962500000000000E+01
Si    0.275000000000000E+01  0.550000000000000E+01  0.825000000000000E+01
Si    0.412500000000000E+01  0.825000000000000E+01  0.962500000000000E+01
Si    0.275000000000000E+01  0.825000000000000E+01  0.550000000000000E+01
Si    0.412500000000000E+01  0.962500000000000E+01  0.687500000000000E+01
Si    0.550000000000000E+01  0.550000000000000E+01  0.550000000000000E+01
Si    0.687500000000000E+01  0.687500000000000E+01  0.687500000000000E+01
Si    0.550000000000000E+01  0.825000000000000E+01  0.825000000000000E+01
Si    0.687500000000000E+01  0.962500000000000E+01  0.962500000000000E+01
Si    0.825000000000000E+01  0.550000000000000E+01  0.825000000000000E+01
Si    0.962500000000000E+01  0.825000000000000E+01  0.962500000000000E+01
Si    0.825000000000000E+01  0.825000000000000E+01  0.550000000000000E+01
Si    0.962500000000000E+01  0.962500000000000E+01  0.687500000000000E+01
Si    0.110000000000000E+02  0.550000000000000E+01  0.550000000000000E+01
Si    0.123750000000000E+02  0.687500000000000E+01  0.687500000000000E+01
Si    0.110000000000000E+02  0.825000000000000E+01  0.825000000000000E+01
Si    0.123750000000000E+02  0.962500000000000E+01  0.962500000000000E+01
Si    0.137500000000000E+02  0.550000000000000E+01  0.825000000000000E+01
Si    0.151250000000000E+02  0.825000000000000E+01  0.962500000000000E+01
Si    0.137500000000000E+02  0.825000000000000E+01  0.550000000000000E+01
Si    0.151250000000000E+02  0.962500000000000E+01  0.687500000000000E+01
Si    0.165000000000000E+02  0.550000000000000E+01  0.550000000000000E+01
Si    0.178750000000000E+02  0.687500000000000E+01  0.687500000000000E+01
Si    0.165000000000000E+02  0.825000000000000E+01  0.825000000000000E+01
Si    0.178750000000000E+02  0.962500000000000E+01  0.962500000000000E+01
Si    0.192500000000000E+02  0.550000000000000E+01  0.825000000000000E+01
Si    0.206250000000000E+02  0.825000000000000E+01  0.962500000000000E+01
Si    0.192500000000000E+02  0.825000000000000E+01  0.550000000000000E+01
Si    0.206250000000000E+02  0.962500000000000E+01  0.687500000000000E+01
Si    0.000000000000000E+00  0.110000000000000E+02  0.550000000000000E+01
Si    0.137500000000000E+01  0.123750000000000E+02  0.687500000000000E+01
Si    0.000000000000000E+00  0.137500000000000E+02  0.825000000000000E+01
Si    0.137500000000000E+01  0.151250000000000E+02  0.962500000000000E+01
Si    0.275000000000000E+01  0.110000000000000E+02  0.825000000000000E+01
Si    0.412500000000000E+01  0.137500000000000E+02  0.962500000000000E+01
Si    0.275000000000000E+01  0.137500000000000E+02  0.550000000000000E+01
Si    0.412500000000000E+01  0.151250000000000E+02  0.687500000000000E+01
Si    0.550000000000000E+01  0.110000000000000E+02  0.550000000000000E+01
Si    0.687500000000000E+01  0.123750000000000E+02  0.687500000000000E+01
Si    0.550000000000000E+01  0.137500000000000E+02  0.825000000000000E+01
Si    0.687500000000000E+01  0.151250000000000E+02  0.962500000000000E+01
Si    0.825000000000000E+01  0.110000000000000E+02  0.825000000000000E+01
Si    0.962500000000000E+01  0.137500000000000E+02  0.962500000000000E+01
Si    0.825000000000000E+01  0.137500000000000E+02  0.550000000000000E+01
Si    0.962500000000000E+01  0.151250000000000E+02  0.687500000000000E+01
Si    0.110000000000000E+02  0.110000000000000E+02  0.550000000000000E+01
Si    0.123750000000000E+02  0.123750000000000E+02  0.687500000000000E+01
Si    0.110000000000000E+02  0.137500000000000E+02  0.825000000000000E+01
Si    0.123750000000000E+02  0.151250000000000E+02  0.962500000000000E+01
Si    0.137500000000000E+02  0.110000000000000E+02  0.825000000000000E+01
Si    0.151250000000000E+02  0.137500000000000E+02  0.962500000000000E+01
Si    0.137500000000000E+02  0.137500000000000E+02  0.550000000000000E+01
Si    0.151250000000000E+02  0.151250000000000E+02  0.687500000000000E+01
Si    0.165000000000000E+02  0.110000000000000E+02  0.550000000000000E+01
Si    0.178750000000000E+02  0.123750000000000E+02  0.687500000000000E+01
Si    0.165000000000000E+02  0.137500000000000E+02  0.825000000000000E+01
Si    0.178750000000000E+02  0.151250000000000E+02  0.962500000000000E+01
Si    0.192500000000000E+02  0.110000000000000E+02  0.825000000000000E+01
Si    0.206250000000000E+02  0.137500000000000E+02  0.962500000000000E+01
Si    0.192500000000000E+02  0.137500000000000E+02  0.550000000000000E+01
Si    0.206250000000000E+02  0.151250000000000E+02  0.687500000000000E+01
Si    0.000000000000000E+00  0.165000000000000E+02  0.550000000000000E+01
Si    0.137500000000000E+01  0.178750000000000E+02  0.687500000000000E+01
Si    0.000000000000000E+00  0.192500000000000E+02  0.825000000000000E+01
Si    0.137500000000000E+01  0.206250000000000E+02  0.962500000000000E+01
Si    0.275000000000000E+01  0.165000000000000E+02  0.825000000000000E+01
Si    0.412500000000000E+01  0.192500000000000E+02  0.962500000000000E+01
Si    0.275000000000000E+01  0.192500000000000E+02  0.550000000000000E+01
Si    0.412500000000000E+01  0.206250000000000E+02  0.687500000000000E+01
Si    0.550000000000000E+01  0.165000000000000E+02  0.550000000000000E+01
Si    0.687500000000000E+01  0.178750000000000E+02  0.687500000000000E+01
Si    0.550000000000000E+01  0.192500000000000E+02  0.825000000000000E+01
Si    0.687500000000000E+01  0.206250000000000E+02  0.962500000000000E+01
Si    0.825000000000000E+01  0.165000000000000E+02  0.825000000000000E+01
Si    0.962500000000000E+01  0.192500000000000E+02  0.962500000000000E+01
Si    0.825000000000000E+01  0.192500000000000E+02  0.550000000000000E+01
Si    0.962500000000000E+01  0.206250000000000E+02  0.687500000000000E+01
Si    0.110000000000000E+02  0.165000000000000E+02  0.550000000000000E+01
Si    0.123750000000000E+02  0.178750000000000E+02  0.687500000000000E+01
Si    0.110000000000000E+02  0.192500000000000E+02  0.825000000000000E+01
Si    0.123750000000000E+02  0.206250000000000E+02  0.962500000000000E+01
Si    0.137500000000000E+02  0.165000000000000E+02  0.825000000000000E+01
Si    0.151250000000000E+02  0.192500000000000E+02  0.962500000000000E+01
Si    0.137500000000000E+02  0.192500000000000E+02  0.550000000000000E+01
Si    0.151250000000000E+02  0.206250000000000E+02  0.687500000000000E+01
Si    0.165000000000000E+02  0.165000000000000E+02  0.550000000000000E+01
Si    0.178750000000000E+02  0.178750000000000E+02  0.687500000000000E+01
Si    0.165000000000000E+02  0.192500000000000E+02  0.825000000000000E+01
Si    0.178750000000000E+02  0.206250000000000E+02  0.962500000000000E+01
Si    0.192500000000000E+02  0.165000000000000E+02  0.825000000000000E+01
Si    0.206250000000000E+02  0.192500000000000E+02  0.962500000000000E+01
Si    0.192500000000000E+02  0.192500000000000E+02  0.550000000000000E+01
Si    0.206250000000000E+02  0.206250000000000E+02  0.687500000000000E+01
Si    0.000000000000000E+00  0.000000000000000E+00  0.110000000000000E+02
Si    0.137500000000000E+01  0.137500000000000E+01  0.123750000000000E+02
Si    0.000000000000000E+00  0.275000000000000E+01  0.137500000000000E+02
Si    0.137500000000000E+01  0.412500000000000E+01  0.151250000000000E+02
Si    0.275000000000000E+01  0.000000000000000E+00  0.137500000000000E+02
Si    0.412500000000000E+01  0.275000000000000E+01  0.151250000000000E+02
Si    0.275000000000000E+01  0.275000000000000E+01  0.110000000000000E+02
Si    0.412500000000000E+01  0.412500000000000E+01  0.123750000000000E+02
Si    0.550000000000000E+01  0.000000000000000E+00  0.110000000000000E+02
Si    0.687500000000000E+01  0.137500000000000E+01  0.123750000000000E+02
Si    0.550000000000000E+01  0.275000000000000E+01  0.137500000000000E+02
Si    0.687500000000000E+01  0.412500000000000E+01  0.151250000000000E+02
Si    0.825000000000000E+01  0.000000000000000E+00  0.137500000000000E+02
Si    0.962500000000000E+01  0.275000000000000E+01  0.151250000000000E+02
Si    0.825000000000000E+01  0.275000000000000E+01  0.110000000000000E+02
Si    0.962500000000000E+01  0.412500000000000E+01  0.123750000000000E+02
Si    0.110000000000000E+02  0.000000000000000E+00  0.110000000000000E+02
Si    0.123750000000000E+02  0.137500000000000E+01  0.123750000000000E+02
Si    0.110000000000000E+02  0.275000000000000E+01  0.137500000000000E+02
Si    0.123750000000000E+02  0.412500000000000E+01  0.151250000000000E+02
Si    0.137500000000000E+02  0.000000000000000E+00  0.137500000000000E+02
Si    0.151250000000000E+02  0.275000000000000E+01  0.151250000000000E+02
Si    0.137500000000000E+02  0.275000000000000E+01  0.110000000000000E+02
Si    0.151250000000000E+02  0.412500000000000E+01  0.123750000000000E+02
Si    0.165000000000000E+02  0.000000000000000E+00  0.110000000000000E+02
Si    0.178750000000000E+02  0.137500000000000E+01  0.123750000000000E+02
Si    0.165000000000000E+02  0.275000000000000E+01  0.137500000000000E+02
Si    0.178750000000000E+02  0.412500000000000E+01  0.151250000000000E+02
Si    0.192500000000000E+02  0.000000000000000E+00  0.137500000000000E+02
Si    0.206250000000000E+02  0.275000000000000E+01  0.151250000000000E+02
Si    0.192500000000000E+02  0.275000000000000E+01  0.110000000000000E+02
Si    0.206250000000000E+02  0.412500000000000E+01  0.123750000000000E+02
Si    0.000000000000000E+00  0.550000000000000E+01  0.110000000000000E+02
Si    0.137500000000000E+01  0.687500000000000E+01  0.123750000000000E+02
Si    0.000000000000000E+00  0.825000000000000E+01  0.137500000000000E+02
Si    0.137500000000000E+01  0.962500000000000E+01  0.151250000000000E+02
Si    0.275000000000000E+01  0.550000000000000E+01  0.137500000000000E+02
Si    0.412500000000000E+01  0.825000000000000E+01  0.151250000000000E+02
Si    0.275000000000000E+01  0.825000000000000E+01  0.110000000000000E+02
Si    0.412500000000000E+01  0.962500000000000E+01  0.123750000000000E+02
Si    0.550000000000000E+01  0.550000000000000E+01  0.110000000000000E+02
Si    0.687500000000000E+01  0.687500000000000E+01  0.123750000000000E+02
Si    0.550000000000000E+01  0.825000000000000E+01  0.137500000000000E+02
Si    0.687500000000000E+01  0.962500000000000E+01  0.151250000000000E+02
Si    0.825000000000000E+01  0.550000000000000E+01  0.137500000000000E+02
Si    0.962500000000000E+01  0.825000000000000E+01  0.151250000000000E+02
Si    0.825000000000000E+01  0.825000000000000E+01  0.110000000000000E+02
Si    0.962500000000000E+01  0.962500000000000E+01  0.123750000000000E+02
Si    0.110000000000000E+02  0.550000000000000E+01  0.110000000000000E+02
Si    0.123750000000000E+02  0.687500000000000E+01  0.123750000000000E+02
Si    0.110000000000000E+02  0.825000000000000E+01  0.137500000000000E+02
Si    0.123750000000000E+02  0.962500000000000E+01  0.151250000000000E+02
Si    0.137500000000000E+02  0.550000000000000E+01  0.137500000000000E+02
Si    0.151250000000000E+02  0.825000000000000E+01  0.151250000000000E+02
Si    0.137500000000000E+02  0.825000000000000E+01  0.110000000000000E+02
Si    0.151250000000000E+02  0.962500000000000E+01  0.123750000000000E+02
Si    0.165000000000000E+02  0.550000000000000E+01  0.110000000000000E+02
Si    0.178750000000000E+02  0.687500000000000E+01  0.123750000000000E+02
Si    0.165000000000000E+02  0.825000000000000E+01  0.137500000000000E+02
Si    0.178750000000000E+02  0.962500000000000E+01  0.151250000000000E+02
Si    0.192500000000000E+02  0.550000000000000E+01  0.137500000000000E+02
Si    0.206250000000000E+02  0.825000000000000E+01  0.151250000000000E+02
Si    0.192500000000000E+02  0.825000000000000E+01  0.110000000000000E+02
Si    0.206250000000000E+02  0.962500000000000E+01  0.123750000000000E+02
Si    0.000000000000000E+00  0.110000000000000E+02  0.110000000000000E+02
Si    0.137500000000000E+01  0.123750000000000E+02  0.123750000000000E+02
Si    0.000000000000000E+00  0.137500000000000E+02  0.137500000000000E+02
Si    0.137500000000000E+01  0.151250000000000E+02  0.151250000000000E+02
Si    0.275000000000000E+01  0.110000000000000E+02  0.137500000000000E+02
Si    0.412500000000000E+01  0.137500000000000E+02  0.151250000000000E+02
Si    0.275000000000000E+01  0.137500000000000E+02  0.110000000000000E+02
Si    0.412500000000000E+01  0.151250000000000E+02  0.123750000000000E+02
Si    0.550000000000000E+01  0.110000000000000E+02  0.110000000000000E+02
Si    0.687500000000000E+01  0.123750000000000E+02  0.123750000000000E+02
Si    0.550000000000000E+01  0.137500000000000E+02  0.137500000000000E+02
Si    0.687500000000000E+01  0.151250000000000E+02  0.151250000000000E+02
Si    0.825000000000000E+01  0.110000000000000E+02  0.137500000000000E+02
Si    0.962500000000000E+01  0.137500000000000E+02  0.151250000000000E+02
Si    0.825000000000000E+01  0.137500000000000E+02  0.110000000000000E+02
Si    0.962500000000000E+01  0.151250000000000E+02  0.123750000000000E+02
Si    0.110000000000000E+02  0.110000000000000E+02  0.110000000000000E+02
Si    0.123750000000000E+02  0.123750000000000E+02  0.123750000000000E+02
Si    0.110000000000000E+02  0.137500000000000E+02  0.137500000000000E+02
Si    0.123750000000000E+02  0.151250000000000E+02  0.151250000000000E+02
Si    0.137500000000000E+02  0.110000000000000E+02  0.137500000000000E+02
Si    0.151250000000000E+02  0.137500000000000E+02  0.151250000000000E+02
Si    0.137500000000000E+02  0.137500000000000E+02  0.110000000000000E+02
Si    0.151250000000000E+02  0.151250000000000E+02  0.123750000000000E+02
Si    0.165000000000000E+02  0.110000000000000E+02  0.110000000000000E+02
Si    0.178750000000000E+02  0.123750000000000E+02  0.123750000000000E+02
Si    0.165000000000000E+02  0.137500000000000E+02  0.137500000000000E+02
Si    0.178750000000000E+02  0.151250000000000E+02  0.151250000000000E+02
Si    0.192500000000000E+02  0.110000000000000E+02  0.137500000000000E+02
Si    0.206250000000000E+02  0.137500000000000E+02  0.151250000000000E+02
Si    0.192500000000000E+02  0.137500000000000E+02  0.110000000000000E+02
Si    0.206250000000000E+02  0.151250000000000E+02  0.123750000000000E+02
Si    0.000000000000000E+00  0.165000000000000E+02  0.110000000000000E+02
Si    0.137500000000000E+01  0.178750000000000E+02  0.123750000000000E+02
Si    0.000000000000000E+00  0.192500000000000E+02  0.137500000000000E+02
Si    0.137500000000000E+01  0.206250000000000E+02  0.151250000000000E+02
Si    0.275000000000000E+01  0.165000000000000E+02  0.137500000000000E+02
Si    0.412500000000000E+01  0.192500000000000E+02  0.151250000000000E+02
Si    0.275000000000000E+01  0.192500000000000E+02  0.110000000000000E+02
Si    0.412500000000000E+01  0.206250000000000E+02  0.123750000000000E+02
Si    0.550000000000000E+01  0.165000000000000E+02  0.110000000000000E+02
Si    0.687500000000000E+01  0.178750000000000E+02  0.123750000000000E+02
Si    0.550000000000000E+01  0.192500000000000E+02  0.137500000000000E+02
Si    0.687500000000000E+01  0.206250000000000E+02  0.151250000000000E+02
Si    0.825000000000000E+01  0.165000000000000E+02  0.137500000000000E+02
Si    0.962500000000000E+01  0.192500000000000E+02  0.151250000000000E+02
Si    0.825000000000000E+01  0.192500000000000E+02  0.110000000000000E+02
Si    0.962500000000000E+01  0.206250000000000E+02  0.123750000000000E+02
Si    0.110000000000000E+02  0.165000000000000E+02  0.110000000000000E+02
Si    0.123750000000000E+02  0.178750000000000E+02  0.123750000000000E+02
Si    0.110000000000000E+02  0.192500000000000E+02  0.137500000000000E+02
Si    0.123750000000000E+02  0.206250000000000E+02  0.151250000000000E+02
Si    0.137500000000000E+02  0.165000000000000E+02  0.137500000000000E+02
Si    0.151250000000000E+02  0.192500000000000E+02  0.151250000000000E+02
Si    0.137500000000000E+02  0.192500000000000E+02  0.110000000000000E+02
Si    0.151250000000000E+02  0.206250000000000E+02  0.123750000000000E+02
Si    0.165000000000000E+02  0.165000000000000E+02  0.110000000000000E+02
Si    0.178750000000000E+02  0.178750000000000E+02  0.123750000000000E+02
Si    0.165000000000000E+02  0.192500000000000E+02  0.137500000000000E+02
Si    0.178750000000000E+02  0.206250000000000E+02  0.151250000000000E+02
Si    0.192500000000000E+02  0.165000000000000E+02  0.137500000000000E+02
Si    0.206250000000000E+02  0.192500000000000E+02  0.151250000000000E+02
Si    0.192500000000000E+02  0.192500000000000E+02  0.110000000000000E+02
Si    0.206250000000000E+02  0.206250000000000E+02  0.123750000000000E+02
Si    0.000000000000000E+00  0.000000000000000E+00  0.165000000000000E+02
Si    0.137500000000000E+01  0.137500000000000E+01  0.178750000000000E+02
Si    0.000000000000000E+00  0.275000000000000E+01  0.192500000000000E+02
Si    0.137500000000000E+01  0.412500000000000E+01  0.206250000000000E+02
Si    0.275000000000000E+01  0.000000000000000E+00  0.192500000000000E+02
Si    0.412500000000000E+01  0.275000000000000E+01  0.206250000000000E+02
Si    0.275000000000000E+01  0.275000000000000E+01  0.165000000000000E+02
Si    0.412500000000000E+01  0.412500000000000E+01  0.178750000000000E+02
Si    0.550000000000000E+01  0.000000000000000E+00  0.165000000000000E+02
Si    0.687500000000000E+01  0.137500000000000E+01  0.178750000000000E+02
Si    0.550000000000000E+01  0.275000000000000E+01  0.192500000000000E+02
Si    0.687500000000000E+01  0.412500000000000E+01  0.206250000000000E+02
Si    0.825000000000000E+01  0.000000000000000E+00  0.192500000000000E+02
Si    0.962500000000000E+01  0.275000000000000E+01  0.206250000000000E+02
Si    0.825000000000000E+01  0.275000000000000E+01  0.165000000000000E+02
Si    0.962500000000000E+01  0.412500000000000E+01  0.178750000000000E+02
Si    0.110000000000000E+02  0.000000000000000E+00  0.165000000000000E+02
Si    0.123750000000000E+02  0.137500000000000E+01  0.178750000000000E+02
Si    0.110000000000000E+02  0.275000000000000E+01  0.192500000000000E+02
Si    0.123750000000000E+02  0.412500000000000E+01  0.206250000000000E+02