       144
 Polymer_PPE_144atom mdstep=           0
C     0.433620000000001E+00 -0.303550000000001E+00 -0.125321000000000E+00
C    -0.515496000000001E+00  0.696031000000002E+00  0.283388000000001E+00
C    -0.132817000000000E+00 -0.153870100000000E+01 -0.585353000000001E+00
C    -0.190901000000000E+01  0.462457000000001E+00  0.259004000000001E+00
C    -0.246384100000001E+01 -0.801341000000002E+00 -0.139162000000000E+00
C    -0.152726500000000E+01 -0.180671300000000E+01 -0.580002000000001E+00
C     0.188190300000000E+01 -0.424680000000001E-01 -0.377600000000001E-01
C     0.308525600000001E+01  0.321632000000001E+00 -0.354980000000001E-01
C     0.454766700000001E+01  0.441245000000001E+00  0.361540000000001E-01
C     0.520439300000001E+01  0.165296100000000E+01 -0.395110000000001E+00
C     0.537154400000001E+01 -0.639543000000002E+00  0.526066000000001E+00
C     0.661336100000002E+01  0.176827500000000E+01 -0.397165000000001E+00
C     0.678403400000002E+01 -0.507740000000001E+00  0.546040000000001E+00
C     0.742644700000002E+01  0.686385000000002E+00  0.691020000000002E-01
C     0.886886000000002E+01  0.764196000000002E+00  0.533530000000001E-01
C     0.101187370000000E+02  0.699419000000002E+00  0.109056000000000E+00
C     0.115726560000000E+02  0.657864000000002E+00  0.955470000000002E-01
C     0.122388410000000E+02 -0.329814000000001E+00  0.901308000000002E+00
C     0.123556640000000E+02  0.150945700000000E+01 -0.757734000000002E+00
C     0.137594220000000E+02  0.134367900000000E+01 -0.843281000000002E+00
C     0.136392410000000E+02 -0.489517000000001E+00  0.834111000000002E+00
C     0.144160320000000E+02  0.345522000000001E+00 -0.364470000000001E-01
C     0.158459960000000E+02  0.176159000000000E+00 -0.414380000000001E-01
C     0.170707730000000E+02  0.862730000000002E-01  0.191204000000000E+00
C     0.185114700000000E+02  0.220270000000001E-01  0.168694000000000E+00
C     0.192315770000000E+02 -0.120544400000000E+01  0.373823000000001E+00
C     0.192440180000000E+02  0.121294700000000E+01 -0.137440000000000E+00
C     0.206504190000001E+02  0.116386500000000E+01 -0.247721000000001E+00
C     0.206405150000001E+02 -0.124849400000000E+01  0.330153000000001E+00
C     0.213796240000001E+02 -0.568790000000001E-01 -0.837100000000002E-02
C     0.228340810000001E+02 -0.107624000000000E+00 -0.141672000000000E+00
C     0.240774050000001E+02 -0.265882000000001E+00 -0.166067000000000E+00
C     0.255296880000001E+02 -0.229475000000001E+00 -0.110042000000000E+00
C     0.263114450000001E+02 -0.128129500000000E+01  0.510931000000001E+00
C     0.261822910000001E+02  0.937666000000002E+00 -0.630711000000002E+00
C     0.275901830000001E+02  0.105447600000000E+01 -0.530072000000001E+00
C     0.277050310000001E+02 -0.113322000000000E+01  0.610219000000002E+00
C     0.283688500000001E+02  0.288130000000001E-01  0.936160000000002E-01
C     0.298077430000001E+02  0.103298000000000E+00  0.136505000000000E+00
H    -0.264519500000001E+01  0.128772600000000E+01  0.605397000000002E+00
H    -0.137536000000000E+00  0.172183300000000E+01  0.637116000000002E+00
H    -0.390815900000001E+01 -0.967954000000002E+00 -0.110409000000000E+00
H    -0.190164900000000E+01 -0.282818600000001E+01 -0.944141000000002E+00
H     0.596628000000001E+00 -0.235285500000001E+01 -0.949927000000002E+00
H     0.453968900000001E+01  0.250575700000001E+01 -0.788760000000002E+00
H     0.489492000000001E+01 -0.162201900000000E+01  0.905209000000002E+00
H     0.710778200000002E+01  0.272890500000001E+01 -0.789973000000002E+00
H     0.743167900000002E+01 -0.137250400000000E+01  0.947328000000002E+00
H     0.117987080000000E+02  0.228943800000001E+01 -0.139540500000000E+01
H     0.144295470000000E+02  0.198799000000000E+01 -0.152254500000000E+01
H     0.116004730000000E+02 -0.101354800000000E+01  0.157739900000000E+01
H     0.141739280000000E+02 -0.128192900000000E+01  0.147558200000000E+01
H     0.186800910000000E+02  0.219351000000001E+01 -0.328229000000001E+00
H     0.186118900000000E+02 -0.215627500000001E+01  0.605344000000002E+00
H     0.212420020000001E+02  0.211831000000001E+01 -0.505028000000001E+00
H     0.211978270000001E+02 -0.224505600000001E+01  0.513542000000001E+00
H     0.255278110000001E+02  0.176393500000000E+01 -0.110223700000000E+01
H     0.257771660000001E+02 -0.220675000000001E+01  0.931631000000002E+00
H     0.281494640000001E+02  0.197938800000001E+01 -0.935067000000002E+00
H     0.283589460000001E+02 -0.193835400000001E+01  0.109938200000000E+01
H     0.327045210000001E+02  0.219774200000001E+01 -0.761101000000002E+00
H     0.325325910000001E+02 -0.205847200000001E+01  0.570658000000001E+00
C     0.367856820000001E+02 -0.162610000000000E-01  0.588770000000001E-01
H     0.352842840000001E+02  0.206564300000001E+01 -0.741873000000002E+00
H     0.351039290000001E+02 -0.217268500000001E+01  0.584671000000001E+00
C     0.310492090000001E+02  0.642760000000002E-01  0.244430000000001E-01
C     0.324840450000001E+02  0.796660000000002E-01 -0.340560000000001E-01
C     0.331667710000001E+02 -0.112894600000000E+01  0.310557000000001E+00
C     0.332373990000001E+02  0.122574200000000E+01 -0.447322000000001E+00
C     0.346446800000001E+02  0.116385200000000E+01 -0.434740000000001E+00
C     0.345732800000001E+02 -0.118694300000000E+01  0.313553000000001E+00
C     0.353450580000001E+02 -0.165390000000000E-01 -0.364100000000001E-02
C     0.423296280000001E+02 -0.813970000000002E-01  0.125323000000000E+00
C     0.416841200000001E+02  0.113928600000000E+01 -0.243924000000001E+00
C     0.415007180000001E+02 -0.120589900000000E+01  0.487071000000001E+00
C     0.402812090000001E+02  0.124947700000000E+01 -0.257869000000001E+00
C     0.394654440000001E+02  0.127149000000000E+00  0.853920000000002E-01
C     0.400956140000001E+02 -0.109871700000000E+01  0.471839000000001E+00
C     0.437921250000001E+02 -0.110734000000000E+00  0.139302000000000E+00
C     0.450515340000001E+02 -0.889260000000002E-01  0.974160000000002E-01
C     0.465071940000001E+02  0.442000000000001E-01 -0.968900000000002E-02
C     0.471709930000001E+02  0.120559700000000E+01 -0.549232000000001E+00
C     0.473603690000001E+02 -0.103108300000000E+01  0.405785000000001E+00
C     0.485906920000001E+02  0.126820700000000E+01 -0.666966000000002E+00
C     0.487551490000001E+02 -0.983333000000002E+00  0.260359000000001E+00
C     0.494246530000001E+02  0.184547000000000E+00 -0.244101000000001E+00
C     0.508837560000001E+02  0.246625000000001E+00 -0.227612000000001E+00
C     0.521185450000001E+02  0.173614000000000E+00 -0.397300000000001E-02
C     0.535632750000001E+02  0.101307000000000E+00  0.779080000000002E-01
C     0.542904890000001E+02 -0.108993200000000E+01  0.447268000000001E+00
C     0.542967700000001E+02  0.127273200000000E+01 -0.316093000000001E+00
C     0.557007050000001E+02  0.125488100000000E+01 -0.396438000000001E+00
C     0.557098990000001E+02 -0.109392700000000E+01  0.367799000000001E+00
C     0.564322020000001E+02  0.706930000000002E-01 -0.631410000000002E-01
C     0.578675190000002E+02  0.191945000000000E+00 -0.922500000000002E-01
C     0.590602430000001E+02  0.508630000000001E+00  0.134074000000000E+00
C     0.605069950000001E+02  0.476352000000001E+00  0.118768000000000E+00
C     0.611207510000001E+02 -0.783150000000002E+00 -0.157506000000000E+00
C     0.613247680000001E+02  0.163039300000000E+01  0.353679000000001E+00
C     0.627239970000002E+02  0.152291100000000E+01  0.381929000000001E+00
C     0.625291750000002E+02 -0.882415000000002E+00 -0.162036000000000E+00
C     0.633663790000002E+02  0.255858000000001E+00  0.125581000000000E+00
C     0.648165890000002E+02  0.808440000000002E-01  0.923930000000002E-01
C     0.660472320000002E+02 -0.126058000000000E+00 -0.502790000000001E-01
C     0.674934170000002E+02 -0.195914000000000E+00 -0.138550000000000E+00
C     0.681690250000002E+02 -0.137168300000000E+01 -0.620076000000002E+00
C     0.682974510000002E+02  0.910355000000002E+00  0.290283000000001E+00
C     0.697040740000002E+02  0.824494000000002E+00  0.327180000000001E+00
C     0.695796580000002E+02 -0.145161000000000E+01 -0.626277000000002E+00
C     0.703722390000002E+02 -0.369140000000001E+00 -0.112594000000000E+00
C     0.718253890000002E+02 -0.490549000000001E+00  0.126510000000000E-01
H     0.397849580000001E+02  0.224530700000001E+01 -0.555295000000001E+00
H     0.423427640000001E+02  0.203113000000000E+01 -0.532425000000001E+00
C     0.380206460000001E+02  0.179828000000000E+00  0.558950000000001E-01
H     0.394186400000001E+02 -0.198536100000001E+01  0.756423000000002E+00
H     0.419866130000001E+02 -0.220570700000001E+01  0.794860000000002E+00
H     0.465253120000001E+02  0.209837000000001E+01 -0.915180000000002E+00
H     0.468635750000001E+02 -0.197592300000000E+01  0.832373000000002E+00
H     0.490978190000001E+02  0.221716700000001E+01 -0.109253200000000E+01
H     0.493891850000001E+02 -0.188866600000000E+01  0.596028000000002E+00
H     0.536914920000001E+02  0.221591800000001E+01 -0.582909000000001E+00
H     0.563018000000001E+02  0.218640200000001E+01 -0.706590000000002E+00
H     0.537275990000001E+02 -0.204431900000001E+01  0.761798000000002E+00
H     0.562956460000001E+02 -0.204418600000001E+01  0.668476000000002E+00
H     0.608008670000002E+02  0.263814100000001E+01  0.517729000000001E+00
H     0.604724700000002E+02 -0.170888700000000E+01 -0.382740000000001E+00
H     0.633562990000002E+02  0.246376600000001E+01  0.574918000000001E+00
H     0.630129030000002E+02 -0.189273000000000E+01 -0.404540000000001E+00
H     0.677557710000002E+02  0.186749100000000E+01  0.647483000000002E+00
H     0.675513490000002E+02 -0.227775000000001E+01 -0.983776000000002E+00
H     0.703097190000002E+02  0.171647100000000E+01  0.731894000000002E+00
H     0.701091470000002E+02 -0.241421200000001E+01 -0.979730000000002E+00
H     0.748347460000002E+02  0.999010000000002E+00  0.183086300000000E+01
H     0.744981680000002E+02 -0.208533300000001E+01 -0.137070900000000E+01
H     0.788463790000002E+02 -0.847833000000002E+00 -0.210000000000001E-02
H     0.773687580000002E+02  0.828016000000002E+00  0.171401200000000E+01
H     0.771092250000002E+02 -0.223274300000001E+01 -0.151587700000000E+01
C     0.730642780000002E+02 -0.484175000000001E+00  0.223384000000001E+00
C     0.745153000000002E+02 -0.555793000000001E+00  0.229464000000001E+00
C     0.751757660000002E+02 -0.146186500000000E+01 -0.677495000000002E+00
C     0.753239310000002E+02  0.282237000000001E+00  0.107616900000000E+01
C     0.767360400000002E+02  0.177851000000000E+00  0.101292500000000E+01
C     0.765809170000002E+02 -0.153185600000000E+01 -0.762683000000002E+00
C     0.773875100000002E+02 -0.725863000000002E+00  0.978440000000002E-01
       144
 Polymer_PPE_144atom mdstep=          10
C     0.436398467457158E+00 -0.325347748969435E+00 -0.119372762396627E+00
C    -0.494667214363169E+00  0.641917703283432E+00  0.265595928258427E+00
C    -0.120540558796803E+00 -0.155270121750979E+01 -0.562492242178066E+00
C    -0.188409427206306E+01  0.393822965803455E+00  0.249050381347192E+00
C    -0.240163612569960E+01 -0.816350994463821E+00 -0.142199320980286E+00
C    -0.151507236594125E+01 -0.181316667823185E+01 -0.542621550268806E+00
C     0.191850639107226E+01 -0.484685081169607E-01 -0.153332267847207E-01
C     0.304819281896717E+01  0.227130166122101E+00  0.350549927855357E-01
C     0.452853278992358E+01  0.424833341886353E+00  0.116492927517075E-01
C     0.520391971891779E+01  0.159516954606800E+01 -0.388425270570347E+00
C     0.539749475846474E+01 -0.640460343539273E+00  0.435214300369011E+00
C     0.659946660676684E+01  0.167285250076487E+01 -0.349952058878215E+00
C     0.677288840770841E+01 -0.524418041983593E+00  0.496296203816437E+00
C     0.744517742233120E+01  0.656559002999637E+00  0.113482296829800E+00
C     0.892752608024710E+01  0.736743590493627E+00  0.105636116181408E+00
C     0.101074731592866E+02  0.699128909825790E+00  0.183677425842556E+00
C     0.115844253506147E+02  0.680591226718507E+00  0.845082628464060E-01
C     0.122913274702498E+02 -0.259415039763706E+00  0.843658862868740E+00
C     0.123617491286689E+02  0.151945412454962E+01 -0.751454898623143E+00
C     0.137389600743746E+02  0.133363994435648E+01 -0.789664808964547E+00
C     0.136775335916231E+02 -0.476564921289897E+00  0.757829239135281E+00
C     0.144444281720035E+02  0.367339313133770E+00 -0.260571382904380E-01
C     0.158690238371242E+02  0.218355805278337E+00  0.557674285425886E-02
C     0.170800778279110E+02  0.187343690277497E-01  0.133502389290200E+00
C     0.184821505579009E+02  0.293534898533234E-02  0.108606865105065E+00
C     0.192705486822162E+02 -0.119030301499644E+01  0.367783831243571E+00
C     0.192212668766312E+02  0.115624141477182E+01 -0.177932639759007E+00
C     0.206393088341517E+02  0.113556467370199E+01 -0.218399700045876E+00
C     0.206511451286722E+02 -0.118647774019465E+01  0.328355853586068E+00
C     0.214013711656380E+02 -0.215771235386164E-01 -0.477089062882072E-01
C     0.228692332685055E+02 -0.187576281133568E+00 -0.132076016359347E+00
C     0.240381286571102E+02 -0.293578752159193E+00 -0.161153792200331E+00
C     0.255808772261653E+02 -0.334557909779178E+00 -0.178465678835900E+00
C     0.262891903162042E+02 -0.129859398161250E+01  0.446511962249545E+00
C     0.262499123058084E+02  0.904014051882932E+00 -0.587209725897514E+00
C     0.275898301220615E+02  0.104916399010059E+01 -0.574514578390220E+00
C     0.277232748795226E+02 -0.107719514260391E+01  0.604855939461571E+00
C     0.283646615348315E+02  0.183953845205108E-01  0.697958345088093E-01
C     0.298368260470766E+02  0.105712307911907E+00  0.756806626867431E-01
H    -0.254714967771291E+01  0.132925639163872E+01  0.447489185025054E+00
H    -0.150944041738689E+00  0.168556506350348E+01  0.587255881141590E+00
H    -0.375061988015265E+01 -0.114936657422143E+01 -0.244277790720296E+00
H    -0.188118562872317E+01 -0.282291250012053E+01 -0.947594480112517E+00
H     0.566755770066193E+00 -0.234058739962941E+01 -0.106482804728158E+01
H     0.461581849350320E+01  0.252387488148200E+01 -0.761480687734866E+00
H     0.488843450970401E+01 -0.163200415704631E+01  0.785995756979096E+00
H     0.706983550884056E+01  0.263480424318427E+01 -0.804652910461605E+00
H     0.738972484364543E+01 -0.140800501555659E+01  0.933168925726677E+00
H     0.118918914181833E+02  0.235343162793147E+01 -0.142299935868401E+01
H     0.143313099273162E+02  0.203206418546135E+01 -0.147334239648143E+01
H     0.116709065897920E+02 -0.894472101159734E+00  0.159958066926811E+01
H     0.141752180650120E+02 -0.135442964635637E+01  0.133539567888091E+01
H     0.186907306074508E+02  0.215911020869720E+01 -0.337133933328854E+00
H     0.187172689381545E+02 -0.214317288093571E+01  0.749187741290452E+00
H     0.211625432833258E+02  0.216489492655534E+01 -0.408961064020539E+00
H     0.212690504698374E+02 -0.214810656041919E+01  0.585514124307865E+00
H     0.255919869117482E+02  0.176750330269547E+01 -0.102440236671031E+01
H     0.257994173240794E+02 -0.223721003080577E+01  0.942243464400450E+00
H     0.281452529901904E+02  0.193559300020833E+01 -0.108480287227003E+01
H     0.283306557120093E+02 -0.183283653820636E+01  0.122830316619950E+01
H     0.326950301128659E+02  0.221374202201668E+01 -0.708211981643541E+00
H     0.325518140108555E+02 -0.203914924722957E+01  0.578605684235094E+00
C     0.368385247374307E+02  0.421403240375630E-01  0.732815173123751E-01
H     0.352154128417113E+02  0.214985160062994E+01 -0.717557206716517E+00
H     0.351416776213615E+02 -0.214696524150004E+01  0.351112845261754E+00
C     0.310420947522557E+02  0.100676877327254E+00  0.278858365896607E-01
C     0.324843985575341E+02  0.117215734663274E+00 -0.808200379073971E-01
C     0.332251506698091E+02 -0.112063073691313E+01  0.334999781076629E+00
C     0.332225501360838E+02  0.120591102083819E+01 -0.432666194427311E+00
C     0.346827076434913E+02  0.117786824069873E+01 -0.469011935163084E+00
C     0.345638368255608E+02 -0.117537643605561E+01  0.290958102499108E+00
C     0.353545086756992E+02  0.654790378250157E-01 -0.271526028779872E-01
C     0.423638504996935E+02 -0.125733654481137E+00  0.174639292328712E+00
C     0.416771432079618E+02  0.111518684347625E+01 -0.174246657367632E+00
C     0.414670908707723E+02 -0.117620158750530E+01  0.506865615348469E+00
C     0.402939631756074E+02  0.123434634452377E+01 -0.213744092418251E+00
C     0.394313561469836E+02  0.116788620016292E+00  0.709563251905416E-01
C     0.400633133391790E+02 -0.107654669980478E+01  0.453082726044463E+00
C     0.438422270575523E+02 -0.150520080828427E+00  0.169679922662829E+00
C     0.450484814983253E+02 -0.211043242822311E-01  0.983929083084996E-01
C     0.465220358790339E+02  0.618670735863885E-01  0.386588217664268E-02
C     0.471536012797435E+02  0.119428377367023E+01 -0.520828593607133E+00
C     0.473601651529377E+02 -0.103301101186790E+01  0.420860928907418E+00
C     0.485644967313020E+02  0.123832025378650E+01 -0.663630551615744E+00
C     0.487636731392004E+02 -0.103318760148088E+01  0.209866537520100E+00
C     0.493945015066798E+02  0.180418284133724E+00 -0.236533890862409E+00
C     0.508941846557911E+02  0.280151999298607E+00 -0.201339170040429E+00
C     0.520578010039222E+02  0.153006787430103E+00  0.139447045116559E-01
C     0.535655241216144E+02  0.116285354129602E+00  0.108034605126777E+00
C     0.542667196743046E+02 -0.104294202034097E+01  0.386652517041143E+00
C     0.543208405515551E+02  0.131494537794115E+01 -0.317738202329833E+00
C     0.556711058893135E+02  0.131781557908306E+01 -0.402357702586004E+00
C     0.557029622520502E+02 -0.101482651732509E+01  0.398237777691897E+00
C     0.564124095300877E+02  0.100092016792605E+00 -0.199937879201152E-01
C     0.578710701127520E+02  0.262805211612033E+00  0.333104600089117E-01
C     0.590541221291571E+02  0.523128801161107E+00  0.319863822903473E-01
C     0.605013393901007E+02  0.499580111170239E+00  0.841691908982943E-01
C     0.611485586463530E+02 -0.785687608742585E+00 -0.171203488517738E+00
C     0.613371600805870E+02  0.163304673994808E+01  0.331925698896357E+00
C     0.627381998600394E+02  0.148399677215123E+01  0.366511120382580E+00
C     0.625144976552916E+02 -0.884691630096299E+00 -0.193280196205138E+00
C     0.633492856145687E+02  0.246914204236585E+00  0.953772435219434E-01
C     0.647859332815312E+02  0.794248344561072E-01  0.104292456038827E+00
C     0.659824176221910E+02 -0.102059397612045E+00 -0.183003635553245E-01
C     0.674622659906215E+02 -0.180436251781835E+00 -0.103426175332975E+00
C     0.681748006110219E+02 -0.128803104645181E+01 -0.619574902464228E+00
C     0.682692125824351E+02  0.916943573788702E+00  0.287685114913953E+00
C     0.697031616631701E+02  0.831570630198008E+00  0.302724907559572E+00
C     0.695591500996687E+02 -0.138033426115134E+01 -0.584618605599442E+00
C     0.703844666157195E+02 -0.354452242481362E+00 -0.775743239372136E-01
C     0.718634381998865E+02 -0.499066337691756E+00  0.885826250525312E-01
H     0.398295906654910E+02  0.221782862696380E+01 -0.494984144073410E+00
H     0.423435952100022E+02  0.204940470080022E+01 -0.333959219832893E+00
C     0.379815149554128E+02  0.151431076193402E+00  0.254138071724447E-01
H     0.394404240152973E+02 -0.200360251007844E+01  0.754142569198771E+00
H     0.418959499582690E+02 -0.224151183439600E+01  0.713928772358825E+00
H     0.465550468195012E+02  0.215878043844276E+01 -0.715261662469928E+00
H     0.468596147457483E+02 -0.188115759302284E+01  0.101603698688524E+01
H     0.490438062299965E+02  0.224629907633454E+01 -0.101707307656662E+01
H     0.494155366093927E+02 -0.194642994633595E+01  0.504412553517660E+00
H     0.536783489571220E+02  0.222127630689559E+01 -0.636675139705915E+00
H     0.562749236369406E+02  0.225735915372371E+01 -0.737019606702868E+00
H     0.537110826387036E+02 -0.201638716247040E+01  0.717231542360904E+00
H     0.562600300311376E+02 -0.196129367001664E+01  0.802061256167169E+00
H     0.608829577536864E+02  0.268329715946554E+01  0.521592832450731E+00
H     0.604579314451515E+02 -0.166343547834605E+01 -0.508287194585523E+00
H     0.634122395057671E+02  0.241450026680510E+01  0.523674377453756E+00
H     0.630554085059800E+02 -0.187184636828644E+01 -0.490894088254147E+00
H     0.677457953390819E+02  0.191031969703728E+01  0.503573756193140E+00
H     0.675359906974999E+02 -0.217674644645246E+01 -0.100933700077019E+01
H     0.702976624057115E+02  0.173751219158705E+01  0.593807030098964E+00
H     0.700119105635049E+02 -0.237278163889542E+01 -0.102641690560366E+01
H     0.748083185040180E+02  0.984610941075129E+00  0.179713717639243E+01
H     0.745417443667770E+02 -0.220546691149885E+01 -0.126212243435485E+01
H     0.786289166246639E+02 -0.960391407322714E+00  0.276709045269993E+00
H     0.773155956262472E+02  0.879847362472457E+00  0.163867052793866E+01
H     0.770467498430423E+02 -0.224862944350925E+01 -0.153026426898506E+01
C     0.730025201388311E+02 -0.533704535573252E+00  0.240627440939711E+00
C     0.744793931794147E+02 -0.536219481976477E+00  0.255057277480086E+00
C     0.752033755713294E+02 -0.147896822010462E+01 -0.647473637413279E+00
C     0.752509508214196E+02  0.245921223050601E+00  0.104311982215861E+01
C     0.767097115632749E+02  0.175044655187682E+00  0.946923946304096E+00
C     0.765509602521022E+02 -0.153025516399154E+01 -0.772025804734525E+00
C     0.772950061671090E+02 -0.713053268940434E+00  0.120358033754549E+00
       144
 Polymer_PPE_144atom mdstep=          20
C     0.452601411171235E+00 -0.363323083737014E+00 -0.849529618080252E-01
C    -0.480758672417202E+00  0.621123945989598E+00  0.269182758832933E+00
C    -0.873372980939037E-01 -0.159884249042559E+01 -0.567034584124136E+00
C    -0.189864875730066E+01  0.399195117747037E+00  0.222316725345465E+00
C    -0.230629249925649E+01 -0.842884729471557E+00 -0.151127633447837E+00
C    -0.143390947866368E+01 -0.184171716097078E+01 -0.540550846198000E+00
C     0.191343819288995E+01 -0.717164610915724E-01 -0.251231220693817E-01
C     0.304388549977079E+01  0.123239515364026E+00  0.780254188932438E-01
C     0.452100232655600E+01  0.388410222708814E+00  0.161230460878981E-01
C     0.518354741090789E+01  0.153856369347740E+01 -0.379985215412754E+00
C     0.538549079449838E+01 -0.661303506254243E+00  0.363627597225580E+00
C     0.661509632490428E+01  0.163782356000190E+01 -0.347579618248927E+00
C     0.676303052630349E+01 -0.577209810104876E+00  0.481610746962030E+00
C     0.746984773995630E+01  0.616837877838599E+00  0.129650778206710E+00
C     0.895761027378595E+01  0.702897645992556E+00  0.187313464640085E+00
C     0.101053244830160E+02  0.741193708121444E+00  0.213327954554827E+00
C     0.115693400810658E+02  0.697716806445235E+00  0.963355314860464E-01
C     0.123188484021693E+02 -0.256412350025764E+00  0.836336519061908E+00
C     0.123745406651713E+02  0.150600572308491E+01 -0.745327030603281E+00
C     0.137631031169891E+02  0.138810615993671E+01 -0.766072615108623E+00
C     0.136494186923114E+02 -0.480055493686546E+00  0.713833688278255E+00
C     0.144838038319582E+02  0.394570372706664E+00 -0.379568610539794E-01
C     0.159305317494467E+02  0.268049672879922E+00  0.285336652308627E-01
C     0.170209899159886E+02 -0.246140057467761E-01  0.503891724729455E-01
C     0.185325273219494E+02 -0.632051112067118E-01  0.511353383513071E-01
C     0.192909741486337E+02 -0.117180938979338E+01  0.410342774305520E+00
C     0.192519408516344E+02  0.111114344160059E+01 -0.211584563287270E+00
C     0.206528775764234E+02  0.115273379680414E+01 -0.216501591656787E+00
C     0.206469074012797E+02 -0.114815131761631E+01  0.307974936028962E+00
C     0.214133014333551E+02 -0.316469076985084E-01 -0.590849111802478E-01
C     0.229103064966187E+02 -0.204159769873846E+00 -0.123396884861839E+00
C     0.240551258100663E+02 -0.332650273716613E+00 -0.181237761619529E+00
C     0.254914651455850E+02 -0.335667847158145E+00 -0.194054403751979E+00
C     0.263621402576660E+02 -0.129084161880330E+01  0.404784260469264E+00
C     0.262342910163395E+02  0.857825917559577E+00 -0.609341058959686E+00
C     0.276111841065622E+02  0.100274941654480E+01 -0.612499955448141E+00
C     0.277100784224725E+02 -0.107349070955544E+01  0.621057290092125E+00
C     0.284352468250214E+02  0.120139639418543E-02  0.257626609208467E-01
C     0.298700211209693E+02  0.102590253031000E+00  0.200810372497706E-01
H    -0.265692622818987E+01  0.117165866296986E+01  0.541139143433954E+00
H    -0.117059208296717E+00  0.162520313716632E+01  0.573519413681795E+00
H    -0.339896354229229E+01 -0.979637009401970E+00 -0.147500443289474E+00
H    -0.186095403263619E+01 -0.283075130120292E+01 -0.863542860588341E+00
H     0.606788763496394E+00 -0.245752930540768E+01 -0.889533241835466E+00
H     0.459987443264992E+01  0.245774063502387E+01 -0.729091405671769E+00
H     0.490524571058556E+01 -0.166719901487217E+01  0.603127732247166E+00
H     0.708374252131177E+01  0.263590565785830E+01 -0.599351180747899E+00
H     0.734696037339070E+01 -0.149724894518604E+01  0.766287221139245E+00
H     0.118773689853336E+02  0.231463796449436E+01 -0.139390632276526E+01
H     0.143419784616344E+02  0.208246533662599E+01 -0.140679224178731E+01
H     0.117545022564357E+02 -0.964837729764085E+00  0.153199720086812E+01
H     0.141080289757846E+02 -0.130587509721205E+01  0.135193591454133E+01
H     0.186862604668770E+02  0.205885483405936E+01 -0.377288885495444E+00
H     0.187861540132217E+02 -0.216055627114526E+01  0.672231369462493E+00
H     0.211792330793300E+02  0.215408526897796E+01 -0.417847977628125E+00
H     0.212009585544940E+02 -0.211123911276800E+01  0.609828794179374E+00
H     0.255569812638414E+02  0.170151427575713E+01 -0.978792034850527E+00
H     0.259358411885315E+02 -0.229974566205192E+01  0.758504891617164E+00
H     0.280614271932351E+02  0.199868798847089E+01 -0.974804304916713E+00
H     0.282436004848402E+02 -0.186942204758217E+01  0.121367298738747E+01
H     0.327378307603016E+02  0.217975087091838E+01 -0.802885586079391E+00
H     0.326857212485492E+02 -0.201577106670621E+01  0.639152125139100E+00
C     0.368106255390642E+02  0.108903183429602E+00  0.518439418964153E-01
H     0.351744648348624E+02  0.211224569439724E+01 -0.790854995010711E+00
H     0.351645911074016E+02 -0.196848260774596E+01  0.631057030884585E+00
C     0.310085876525627E+02  0.154177398647956E+00  0.116716487763426E-01
C     0.324923795813975E+02  0.101522945474078E+00 -0.474903029511154E-01
C     0.332371573432653E+02 -0.108692062449278E+01  0.297265944371592E+00
C     0.332488159195244E+02  0.120843198040573E+01 -0.443258649050010E+00
C     0.346499658058011E+02  0.120821279852217E+01 -0.438062110817981E+00
C     0.346088767663628E+02 -0.110785733731145E+01  0.228546688239412E+00
C     0.353849295886700E+02  0.870305812575214E-01 -0.629945773694991E-01
C     0.423452834696502E+02 -0.127174622155570E+00  0.225653862135585E+00
C     0.416935049080526E+02  0.109367837755198E+01 -0.691666370920524E-01
C     0.414985991615847E+02 -0.119564961883092E+01  0.491632706517777E+00
C     0.403161737561579E+02  0.119949127252401E+01 -0.176578291955726E+00
C     0.394313105907115E+02  0.120926543115005E+00  0.702450194531721E-01
C     0.400951161040910E+02 -0.106333115446078E+01  0.442746702380202E+00
C     0.438974417127455E+02 -0.180070671589018E+00  0.193897681344927E+00
C     0.450090338619171E+02  0.277979102679441E-01  0.123640021706277E+00
C     0.465168162400391E+02  0.442552392036050E-01  0.280888117850027E-01
C     0.471694307816618E+02  0.119112409233329E+01 -0.481331729434912E+00
C     0.473762527422427E+02 -0.103502138442960E+01  0.421189279914652E+00
C     0.485425000838723E+02  0.122369280286260E+01 -0.608022896879927E+00
C     0.487180247755924E+02 -0.101289755926854E+01  0.194639572945000E+00
C     0.493954689294242E+02  0.162854202525271E+00 -0.264206157769328E+00
C     0.508890426675816E+02  0.264420379626366E+00 -0.150387181699498E+00
C     0.520173155945673E+02  0.152717048936739E+00  0.191888288288870E-01
C     0.535032551876094E+02  0.158466586629016E+00  0.601624204205071E-01
C     0.542714666165824E+02 -0.949480563843990E+00  0.356268060278273E+00
C     0.542740589603707E+02  0.132771275870843E+01 -0.324936949713814E+00
C     0.556363943282789E+02  0.132620894700113E+01 -0.385671819737580E+00
C     0.556977799115018E+02 -0.924849365494408E+00  0.420814174344317E+00
C     0.564252387881359E+02  0.206888991141027E+00  0.604708453226476E-01
C     0.579038132859299E+02  0.315490003950572E+00  0.143306925142500E+00
C     0.590035179149082E+02  0.505055107774903E+00 -0.492495766597721E-01
C     0.605090600415115E+02  0.524963151831897E+00  0.418465668609852E-01
C     0.611582183397791E+02 -0.723407893779367E+00 -0.220141354913686E+00
C     0.613322739250808E+02  0.157980860633749E+01  0.311009485155624E+00
C     0.627492924035017E+02  0.144680046187519E+01  0.324695569540975E+00
C     0.625124478196818E+02 -0.881021774011877E+00 -0.225817748151361E+00
C     0.633528231377052E+02  0.217322665530584E+00  0.870329220506805E-01
C     0.648154268452938E+02  0.771141002439456E-01  0.834875307875817E-01
C     0.659367852488538E+02 -0.599854998260904E-01  0.143574945996445E-01
C     0.674181344834299E+02 -0.132611427527284E+00 -0.682321896475441E-01
C     0.681328456299053E+02 -0.125137010410814E+01 -0.598163269166611E+00
C     0.682913208800127E+02  0.943483130435911E+00  0.270620297976815E+00
C     0.696496609256019E+02  0.856718346748238E+00  0.275344584974408E+00
C     0.695430569182202E+02 -0.134711176515753E+01 -0.563510492146003E+00
C     0.703819825298461E+02 -0.330300509352381E+00 -0.138130454883331E-01
C     0.718273723955329E+02 -0.484788378731389E+00  0.147604130189329E+00
H     0.398844266514324E+02  0.217386075970691E+01 -0.421877583501771E+00
H     0.423178660270446E+02  0.201686945348585E+01 -0.333017361894930E+00
C     0.379630985373950E+02  0.138371024510766E+00 -0.141700561041537E-03
H     0.394707562405170E+02 -0.197060113880840E+01  0.652661110291704E+00