        12
 C6H6 mdstep=           0
C     0.140000000000000E+01  0.000000000000000E+00  0.000000000000000E+00
C     0.700000000000000E+00  0.121244000000000E+01  0.000000000000000E+00
C    -0.700000000000000E+00  0.121243000000000E+01  0.000000000000000E+00
C    -0.140000000000000E+01  0.000000000000000E+00  0.000000000000000E+00
C    -0.700000000000000E+00 -0.121244000000000E+01  0.000000000000000E+00
C     0.700000000000000E+00 -0.121243000000000E+01  0.000000000000000E+00
H     0.246000000000000E+01  0.000000000000000E+00  0.000000000000000E+00
H     0.123000000000000E+01  0.213042000000000E+01  0.000000000000000E+00
H    -0.123000000000000E+01  0.213042000000000E+01  0.000000000000000E+00
H    -0.246000000000000E+01  0.000000000000000E+00  0.000000000000000E+00
H    -0.123000000000000E+01 -0.213042000000000E+01  0.000000000000000E+00
H     0.123000000000000E+01 -0.213042000000000E+01  0.000000000000000E+00
        12
 C6H6 mdstep=           1
C     0.140010979136976E+01 -0.182526826784341E-02 -0.340598833864917E-02
C     0.696882384921402E+00  0.121344275250619E+01 -0.201764764428872E-02
C    -0.700140734616463E+00  0.121744207425688E+01  0.557240223610840E-02
C    -0.138639945174864E+01 -0.739436459588175E-02 -0.409862694042568E-03
C    -0.710680877073919E+00 -0.120970190384933E+01  0.421872826648995E-03
C     0.706120278780333E+00 -0.121974142176636E+01  0.242512933712959E-02
H     0.244012464324751E+01  0.208030578483721E-01  0.126900274743746E-01
H     0.123870856151773E+01  0.214798249822672E+01  0.246156068580067E-01
H    -0.125065522869117E+01  0.215294968903515E+01 -0.267720696773803E-01
H    -0.247518366676711E+01  0.102560344947401E-01 -0.523790864204302E-02
H    -0.122610575967815E+01 -0.210877263793539E+01 -0.536296583827478E-01
H     0.120290633331589E+01 -0.213053007474285E+01  0.175189037825158E-01
        12
 C6H6 mdstep=           2
C     0.139979944549308E+01 -0.375434690796788E-02 -0.672061782601475E-02
C     0.693924584914258E+00  0.121534917258494E+01 -0.391786709121853E-02
C    -0.700572148334488E+00  0.122330850686347E+01  0.110477582818208E-01
C    -0.137411807642128E+01 -0.143381334540348E-01 -0.820636721447784E-03
C    -0.720887406583110E+00 -0.120671599664611E+01  0.672138530499437E-03
C     0.711947759755617E+00 -0.122656639645990E+01  0.490712290136845E-02
H     0.243100510192106E+01  0.408107515932439E-01  0.251762140032702E-01
H     0.124494502845147E+01  0.216021384640785E+01  0.483215387072632E-01
H    -0.126738028803732E+01  0.216846841938212E+01 -0.524588971791038E-01
H    -0.248277293568178E+01  0.197041353973758E-01 -0.106700239839526E-01
H    -0.122817501439338E+01 -0.209769719653573E+01 -0.106746569426950E+00
H     0.118209046671569E+01 -0.213995476107552E+01  0.347941746197304E-01
        12
 C6H6 mdstep=           3
C     0.139867248518975E+01 -0.601668103353378E-02 -0.997946189982288E-02
C     0.690968776179322E+00  0.121868427875979E+01 -0.564048479534427E-02
C    -0.701327288887734E+00  0.123062645322729E+01  0.165194413539381E-01
C    -0.136346705041831E+01 -0.206220363621409E-01 -0.125249109366285E-02
C    -0.730568372570243E+00 -0.120333826574608E+01  0.602804889882601E-03
C     0.717468328169230E+00 -0.123270167920686E+01  0.758825945109871E-02
H     0.243688949717112E+01  0.601231589557686E-01  0.378256841948750E-01
H     0.124681614014200E+01  0.216301684046302E+01  0.708855445297589E-01
H    -0.127759052516713E+01  0.217201507572483E+01 -0.766430014722601E-01
H    -0.247747163629928E+01  0.278415255073412E-01 -0.166815109162741E-01
H    -0.123839974144879E+01 -0.210066847152493E+01 -0.161150348332562E+00
H     0.116977390273364E+01 -0.216302839582586E+01  0.523608319174181E-01
        12
 C6H6 mdstep=           4
C     0.139686103579189E+01 -0.895370007848911E-02 -0.132462939880987E-01
C     0.687748642729385E+00  0.122390460009491E+01 -0.713967649993339E-02
C    -0.702326589078145E+00  0.124000479780048E+01  0.221932715539615E-01
C    -0.135443340700767E+01 -0.261318141757084E-01 -0.174097984960079E-02
C    -0.740106801543425E+00 -0.120007199154234E+01 -0.688437767597457E-04
C     0.723076797219108E+00 -0.123859873455051E+01  0.107005107852446E-01
H     0.245516073684768E+01  0.788804005437269E-01  0.510088342143912E-01
H     0.124369992435359E+01  0.215452356287190E+01  0.923779199058541E-01
H    -0.128037330664229E+01  0.216126008418299E+01 -0.992072766114391E-01
H    -0.245693361263842E+01  0.343882554905697E-01 -0.238684899277399E-01
H    -0.125512237902734E+01 -0.211382511981962E+01 -0.218695361567105E+00
H     0.116463530256016E+01 -0.219788670243401E+01  0.709011641718048E-01
        12
 C6H6 mdstep=           5
C     0.139494503540996E+01 -0.129115684674509E-01 -0.164331256881066E-01
C     0.683997380586339E+00  0.123118816931893E+01 -0.830815712223066E-02
C    -0.703283443604739E+00  0.125166245588988E+01  0.281565874044102E-01
C    -0.134714612589340E+01 -0.305593114866921E-01 -0.231973177465301E-02
C    -0.749703870188563E+00 -0.119800917169505E+01 -0.182786339293738E-02
C     0.729250492120095E+00 -0.124501152308825E+01  0.144684524944737E-01
H     0.247740394959370E+01  0.960536050324851E-01  0.642647024420887E-01
H     0.123662971297747E+01  0.213566505943364E+01  0.112264963288070E+00
H    -0.127662178385753E+01  0.213717680930228E+01 -0.119432158157824E+00
H    -0.242271012603344E+01  0.390905832666326E-01 -0.328555271477599E-01
H    -0.127400409535949E+01 -0.212857129436457E+01 -0.278098166985302E+00
H     0.116326121015763E+01 -0.223602717213222E+01  0.901684000898186E-01
        12
 C6H6 mdstep=           6
C     0.139357729544204E+01 -0.181261348546413E-01 -0.192666093457884E-01
C     0.679491563564257E+00  0.124009408399254E+01 -0.900206259534950E-02
C    -0.703603284866869E+00  0.126495616075070E+01  0.343151501782180E-01
C    -0.134171225769630E+01 -0.334499818648532E-01 -0.300312452137855E-02
C    -0.759049159982301E+00 -0.119838620597104E+01 -0.521406134188891E-02
C     0.736199210442852E+00 -0.125241902867109E+01  0.189927057592509E-01
H     0.249369994865292E+01  0.109531260380250E+00  0.762508690565553E-01
H     0.122939677811911E+01  0.211222523684222E+01  0.129509391652922E+00
H    -0.127077093213217E+01  0.210704740386576E+01 -0.136355524317438E+00
H    -0.238335476277547E+01  0.420760918255948E-01 -0.441740546160004E-01
H    -0.129003006899029E+01 -0.213572860527138E+01 -0.334540808851849E+00
H     0.116262777522487E+01 -0.226695541357618E+01  0.108849790755950E+00
        12
 C6H6 mdstep=           7
C     0.139322336058502E+01 -0.247996404651066E-01 -0.214545033050575E-01
C     0.673889296165945E+00  0.124972450243797E+01 -0.914799497107696E-02
C    -0.702374859067489E+00  0.127861789415731E+01  0.406932563812837E-01
C    -0.133766557665658E+01 -0.345301565123137E-01 -0.379092298512890E-02
C    -0.767725582720203E+00 -0.120212544737620E+01 -0.107279136294837E-01
C     0.744011246685348E+00 -0.126108154730649E+01  0.243400613835319E-01
H     0.249605856111369E+01  0.117304739203890E+00  0.855628242753303E-01
H     0.122875715450420E+01  0.209477853789416E+01  0.143910321534549E+00
H    -0.127205319644828E+01  0.208533039255890E+01 -0.150603900634391E+00
H    -0.235412965157192E+01  0.443851889578289E-01 -0.586678082598821E-01
H    -0.129942588353743E+01 -0.212870340879434E+01 -0.383072057445604E+00
H     0.116077858070418E+01 -0.228227828462030E+01  0.125588298171058E+00
        12
 C6H6 mdstep=           8
C     0.139402401043859E+01 -0.333409018434671E-01 -0.227890023162702E-01
C     0.666716048730137E+00  0.125955588203927E+01 -0.869910593988013E-02
C    -0.698695476154764E+00  0.129183633876877E+01  0.476018413962761E-01
C    -0.133418193414876E+01 -0.337064732014473E-01 -0.469889210294873E-02
C    -0.775589810331171E+00 -0.120980626760456E+01 -0.189747320787912E-01
C     0.752898916363469E+00 -0.127124192435073E+01  0.307287258047192E-01
H     0.248053862366506E+01  0.118075552858915E+00  0.913602522166590E-01
H     0.124123177088504E+01  0.209251731177403E+01  0.156032210908600E+00
H    -0.129001382745609E+01  0.208556870205576E+01 -0.164000169486247E+00
H    -0.235015761397095E+01  0.475893860166510E-01 -0.780076465922232E-01
H    -0.130065608060688E+01 -0.210471005041522E+01 -0.421370797997590E+00
H     0.115742760417062E+01 -0.227832567249537E+01  0.139893360307658E+00
        12
 C6H6 mdstep=           9
C     0.139573228038398E+01 -0.439720405530786E-01 -0.230317469404213E-01
C     0.658059216517298E+00  0.126953936683198E+01 -0.749608285776740E-02
C    -0.692543668437559E+00  0.130451673933757E+01  0.549778788410987E-01
C    -0.133131727529901E+01 -0.309280901064949E-01 -0.578105105008436E-02
C    -0.782336458742413E+00 -0.122125163099392E+01 -0.302932233955351E-01
C     0.762705428146635E+00 -0.128253359197519E+01  0.382050117022431E-01
H     0.244846608281339E+01  0.111072884979673E+00  0.930578947054243E-01
H     0.126787924782351E+01  0.210645401885575E+01  0.164785863706708E+00
H    -0.132458210877936E+01  0.210836156768465E+01 -0.175186061110413E+00
H    -0.237460454083740E+01  0.522746648254131E-01 -0.103020743275616E+00
H    -0.129440493532199E+01 -0.206628879944570E+01 -0.447821888397030E+00
H     0.115451138405808E+01 -0.225670963558276E+01  0.151433421316250E+00
        12
 C6H6 mdstep=          10
C     0.139737085506037E+01 -0.556425091835517E-01 -0.220470662063510E-01
C     0.649511594208298E+00  0.127928577482356E+01 -0.543167454149284E-02
C    -0.685572177714292E+00  0.131616880234643E+01  0.616982208421100E-01
C    -0.133036496853131E+01 -0.265706853863597E-01 -0.709006373496634E-02
C    -0.786984190383427E+00 -0.123407680009492E+01 -0.433786436527288E-01
C     0.771949017266605E+00 -0.129283829906384E+01  0.458906778710103E-01
H     0.241233712907455E+01  0.979099024353106E-01  0.909329545683054E-01
H     0.129961014607908E+01  0.212637489428167E+01  0.166816409141412E+00
H    -0.136129438117041E+01  0.213868357925299E+01 -0.178503900837355E+00
H    -0.241114501309695E+01  0.570882171923967E-01 -0.130134735238425E+00
H    -0.128593260248681E+01 -0.202750589606088E+01 -0.462078006097006E+00
H     0.115683071697219E+01 -0.222960704448570E+01  0.159743178401399E+00
        12
 C6H6 mdstep=          11
C     0.139750098961204E+01 -0.668265457068489E-01 -0.200734940823072E-01
C     0.642909208941578E+00  0.128823383913870E+01 -0.266562721831819E-02
C    -0.679737433365462E+00  0.132606627853111E+01  0.666979145093804E-01
C    -0.133212633090917E+01 -0.215468701433986E-01 -0.865224503443647E-02
C    -0.788693529751009E+00 -0.124471695585508E+01 -0.559071368564432E-01
C     0.778838181849857E+00 -0.129961184058789E+01  0.526145060619115E-01
H     0.239230613334452E+01  0.830917419656776E-01  0.869574515566856E-01
H     0.132477394203131E+01  0.214032577431550E+01  0.160446944702796E+00
H    -0.138546415601795E+01  0.216156826368745E+01 -0.170609245095477E+00
H    -0.243961797667757E+01  0.604751261500844E-01 -0.154053927932896E+00
H    -0.128488839012486E+01 -0.200914845179792E+01 -0.470036603654155E+00
H     0.117015701043869E+01 -0.221702280465975E+01  0.165799639304476E+00
        12
 C6H6 mdstep=          12
C     0.139539111599110E+01 -0.773743125391800E-01 -0.173022187828448E-01
C     0.638718653114323E+00  0.129665765235333E+01  0.727837981254165E-03
C    -0.675684191955184E+00  0.133456656781284E+01  0.700050246844917E-01
C    -0.133661218124400E+01 -0.163911405812475E-01 -0.106068916286987E-01
C    -0.787480090553556E+00 -0.125173620082387E+01 -0.672228136635073E-01
C     0.783087722758518E+00 -0.130249695656457E+01  0.582537644438794E-01
H     0.239826113663282E+01  0.692560647865662E-01  0.825919982394103E-01
H     0.133894871614587E+01  0.214362100953560E+01  0.146075871407392E+00
H    -0.139261817569858E+01  0.217218178051626E+01 -0.151408005988747E+00
H    -0.245131531756716E+01  0.621472388834061E-01 -0.173241919505854E+00
H    -0.129718028155912E+01 -0.202089416074286E+01 -0.478354318156289E+00
H     0.119630520953977E+01 -0.222641891771057E+01  0.170904801688021E+00
        12
 C6H6 mdstep=          13
C     0.139138635154150E+01 -0.878802085322802E-01 -0.135488305746106E-01
C     0.636845817411565E+00  0.130515891503702E+01  0.489726991499258E-02
C    -0.673338199009273E+00  0.134240218614482E+01  0.720272811281937E-01
C    -0.134387830522592E+01 -0.112529523707557E-01 -0.132291788683529E-01
C    -0.783892287924175E+00 -0.125575055759083E+01 -0.783085367836458E-01
C     0.785294505964055E+00 -0.130266502773638E+01  0.633083340733565E-01
H     0.242499566027996E+01  0.554909599201640E-01  0.772945963165633E-01
H     0.134213575910845E+01  0.213601613718216E+01  0.123703187320326E+00
H    -0.138302698517782E+01  0.217118715324558E+01 -0.120504421489548E+00
H    -0.244479418193106E+01  0.625105806659606E-01 -0.188403396980710E+00
H    -0.131959128388714E+01 -0.205660906864136E+01 -0.485655249485781E+00
H     0.123230259680404E+01 -0.224957739905973E+01  0.174741856890511E+00
        12
 C6H6 mdstep=          14
C     0.138662088200847E+01 -0.983663441994948E-01 -0.860843280110001E-02
C     0.637319074563625E+00  0.131363866306527E+01  0.985173941377918E-02
C    -0.672577845243813E+00  0.134959963274744E+01  0.730176557869536E-01
C    -0.135367800152808E+01 -0.653840205610071E-02 -0.167224789051674E-01
C    -0.778761394945355E+00 -0.125775657056552E+01 -0.900166211519382E-01
C     0.785975412189135E+00 -0.130148401551020E+01  0.680360971470301E-01
H     0.245825216006849E+01  0.399949988373423E-01  0.698779190121430E-01
H     0.133600820302538E+01  0.211993888416432E+01  0.939911317805605E-01
H    -0.135908683975371E+01  0.216178705946007E+01 -0.784858545973950E-01
H    -0.242215541657251E+01  0.622334343241821E-01 -0.199824629650375E+00
H    -0.134257693836496E+01 -0.210112787223131E+01 -0.485170519005397E+00
H     0.127119001079443E+01 -0.227201775020011E+01  0.175883423795691E+00
        12
 C6H6 mdstep=          15
C     0.138244635133046E+01 -0.108101974265743E+00 -0.264243996445168E-02
C     0.639890209753977E+00  0.132108936254943E+01  0.152371964362488E-01
C    -0.672982134317367E+00  0.135534645326550E+01  0.732094518811174E-01
C    -0.136474463554833E+01 -0.295179264538116E-02 -0.209955156420165E-01
C    -0.773045231617967E+00 -0.125845201296271E+01 -0.102201145968126E+00
C     0.785435542809644E+00 -0.130003707712309E+01  0.722968915411195E-01
H     0.248309219747542E+01  0.223243638252811E-01  0.601608350951652E-01
H     0.132566085926560E+01  0.210219888416154E+01  0.599079107858128E-01
H    -0.132846595944452E+01  0.215176279178013E+01 -0.294083950327391E-01
H    -0.239248711888995E+01  0.623253309892437E-01 -0.207864421893641E+00
H    -0.135669632222218E+01 -0.213882324658484E+01 -0.472110014688617E+00
H     0.130464480098314E+01 -0.228192847586831E+01  0.173373281193549E+00
        12
 C6H6 mdstep=          16
C     0.137975783569768E+01 -0.116406315852569E+00  0.403928607594058E-02
C     0.643829894319590E+00  0.132633076588969E+01  0.206688429903932E-01
C    -0.673670844390537E+00  0.135861117475123E+01  0.729116914432520E-01
C    -0.137528299047155E+01 -0.981152173490727E-03 -0.257856055275817E-01
C    -0.767441678421491E+00 -0.125830940650265E+01 -0.114408023235331E+00
C     0.783883799529305E+00 -0.129900849019944E+01  0.759265361018929E-01
H     0.249082738494952E+01  0.301095395338968E-02  0.488571965805236E-01
H     0.131931630841704E+01  0.209254027932768E+01  0.246441287268774E-01
H    -0.130278102518070E+01  0.215275052206203E+01  0.220386947321624E-01
H    -0.237121601659034E+01  0.639365409100955E-01 -0.214326639932164E+00
H    -0.135687419726217E+01 -0.216013226711193E+01 -0.445905922153445E+00
H     0.132707072601197E+01 -0.227409079183147E+01  0.167242786742181E+00
        12
 C6H6 mdstep=          17
C     0.137880919093247E+01 -0.123072557133507E+00  0.113786153848364E-01
C     0.648553535854992E+00  0.132874073230196E+01  0.260883559720269E-01
C    -0.673892079885915E+00  0.135882559237854E+01  0.723339385838005E-01
C    -0.138397095088966E+01 -0.730661297535931E-03 -0.309748818774855E-01
C    -0.762112877249504E+00 -0.125751465234605E+01 -0.126597841469669E+00
C     0.781311518768086E+00 -0.129860936196425E+01  0.789331167216049E-01
H     0.247986428321281E+01 -0.175912297319478E-01  0.366478303556598E-01
H     0.132295921101766E+01  0.209753836437231E+01 -0.110664094819166E-01
H    -0.128965240783170E+01  0.217307342777606E+01  0.749142208098600E-01
H    -0.237334617767821E+01  0.679573897550450E-01 -0.221914462169102E+00
H    -0.134231408203724E+01 -0.216287114715218E+01 -0.407875063081252E+00
H     0.133716610299504E+01 -0.224913849621256E+01  0.157958368409652E+00
        12
 C6H6 mdstep=          18
C     0.137947498331318E+01 -0.127853405464641E+00  0.193343114787454E-01
C     0.653970594307863E+00  0.132832459632771E+01  0.314792426605034E-01
C    -0.673631893281016E+00  0.135629349795107E+01  0.715761627605991E-01
C    -0.139048136811617E+01 -0.207740416035477E-02 -0.366206787026149E-01
C    -0.757018735763978E+00 -0.125588537697478E+01 -0.138632870518885E+00
C     0.777490425850363E+00 -0.129868396127766E+01  0.812899027370610E-01
H     0.245363931832310E+01 -0.386638460385999E-01  0.243510440078386E-01
H     0.133561638703842E+01  0.211582518986864E+01 -0.468981611690723E-01
H    -0.128689868315703E+01  0.220901799706011E+01  0.129484096165187E+00
H    -0.240172040507740E+01  0.741405111775368E-01 -0.231210725770579E+00
H    -0.131515453941373E+01 -0.214967907299470E+01 -0.360734502701148E+00
H     0.133601908451461E+01 -0.221204629434501E+01  0.146267299037821E+00
        12
 C6H6 mdstep=          19
C     0.138115654927238E+01 -0.130225521682062E+00  0.273823060018797E-01
C     0.660055402666089E+00  0.132570459538087E+01  0.364449098766990E-01
C    -0.673383710406330E+00  0.135215490038084E+01  0.708421567173527E-01
C    -0.139536650679749E+01 -0.456813402485661E-02 -0.426501039084166E-01
C    -0.752224456610644E+00 -0.125294469053702E+01 -0.149558233796247E+00
C     0.772241188841548E+00 -0.129868013134566E+01  0.828108932382891E-01
H     0.242257298168084E+01 -0.577161471998127E-01  0.134808160858530E-01
H     0.134955061073705E+01  0.213791321329721E+01 -0.795999815435730E-01
H    -0.128595353363110E+01  0.224550258725013E+01  0.181679724690785E+00
H    -0.244153605254772E+01  0.804434496558884E-01 -0.239320795279229E+00
H    -0.128262833687103E+01 -0.212959601204694E+01 -0.311249118345426E+00
H     0.132762512417975E+01 -0.217455347746285E+01  0.133854927180888E+00
        12
 C6H6 mdstep=          20
C     0.138276532106240E+01 -0.129960805973953E+00  0.349411129027094E-01
C     0.666629487448183E+00  0.132176230112214E+01  0.405474599859085E-01
C    -0.673481565785459E+00  0.134754504615252E+01  0.703929022931746E-01
C    -0.139946223391715E+01 -0.753283185560188E-02 -0.488889355364228E-01
C    -0.747586793902693E+00 -0.124802661065188E+01 -0.158422478752057E+00
C     0.765440778211433E+00 -0.129772023445499E+01  0.833767639314522E-01
H     0.240201665482940E+01 -0.722297327741853E-01  0.516080964074447E-02
H     0.135703045289948E+01  0.215374702139689E+01 -0.105351081234995E+00
H    -0.128015589430495E+01  0.226921849190295E+01  0.226168724854284E+00
H    -0.247456741793174E+01  0.845281636481349E-01 -0.243169666231541E+00
H    -0.125565489934254E+01 -0.211747185441188E+01 -0.266897795884343E+00
H     0.131919599041956E+01 -0.215175705405134E+01  0.122558371964491E+00
        12
 C6H6 mdstep=          21
C     0.138348064782441E+01 -0.127136366823196E+00  0.421481202459830E-01
C     0.673818077108501E+00  0.131683644454623E+01  0.438003127486520E-01
C    -0.673987742798201E+00  0.134283329392714E+01  0.703936686441381E-01
C    -0.140351544916724E+01 -0.105907467727184E-01 -0.555451655503536E-01
C    -0.742632025617270E+00 -0.124043821821559E+01 -0.165339257261082E+00
C     0.756726282879586E+00 -0.129511892172376E+01  0.830199675824278E-01
H     0.240232223549569E+01 -0.818958242452530E-01 -0.811682246055698E-03
H     0.135505791304714E+01  0.215909535739617E+01 -0.123392854091750E+00
H    -0.126656338806570E+01  0.227515922771874E+01  0.262132559405192E+00
H    -0.249274353853562E+01  0.852957005205292E-01 -0.241745625387326E+00
H    -0.124070078298496E+01 -0.212404871496094E+01 -0.229036772811919E+00
H     0.131544023738746E+01 -0.215136757195373E+01  0.112664408137345E+00
        12
 C6H6 mdstep=          22
C     0.138334283522259E+01 -0.121555595913501E+00  0.495912406821857E-01
C     0.682122249525266E+00  0.131053961157210E+01  0.464285799409511E-01
C    -0.674844392979458E+00  0.133769848556885E+01  0.709720475519580E-01
C    -0.140812567948465E+01 -0.136879385396039E-01 -0.632032829135885E-01
C    -0.737085686910720E+00 -0.122990946125648E+01 -0.170911101911602E+00
C     0.745623509756918E+00 -0.129068148072844E+01  0.817065332808287E-01
H     0.242364487248169E+01 -0.877052778446877E-01 -0.474241402802386E-02
H     0.134305101190467E+01  0.215310173416060E+01 -0.134239227492081E+00
H    -0.124394728857284E+01  0.226220522139886E+01  0.291196060773269E+00
H    -0.249400690815879E+01  0.821854273847174E-01 -0.234673347944423E+00
H    -0.123624454357153E+01 -0.214827468584338E+01 -0.194627133977711E+00
H     0.131436060678966E+01 -0.217098971579006E+01  0.103294765370884E+00
        12
 C6H6 mdstep=          23
C     0.138316294040042E+01 -0.112960377467183E+00  0.575312148017224E-01
C     0.691722378465540E+00  0.130221549180632E+01  0.485205545705830E-01
C    -0.675852216964623E+00  0.133162126512181E+01  0.722330959359088E-01
C    -0.141341509374618E+01 -0.167178841672298E-01 -0.721884675863305E-01
C    -0.731243663567836E+00 -0.121718749224802E+01 -0.175309430575496E+00
C     0.732269766952010E+00 -0.128472689808499E+01  0.793064606791043E-01
H     0.245650433865082E+01 -0.904279074417727E-01 -0.588755446720791E-02
H     0.132248357558749E+01  0.213718340139331E+01 -0.137614836472293E+00
H    -0.121356022025948E+01  0.223147323939171E+01  0.313634076510291E+00
H    -0.247900382226714E+01  0.748558336803699E-01 -0.221963017815780E+00
H    -0.123629814399717E+01 -0.217876547089771E+01 -0.162330946540263E+00
H     0.130903050756128E+01 -0.220106110570186E+01  0.938833487489026E-01
        12
 C6H6 mdstep=          24
C     0.138394089158742E+01 -0.101933671234822E+00  0.654550139386820E-01
C     0.701776456088827E+00  0.129160892978252E+01  0.500288859787459E-01
C    -0.676541908522606E+00  0.132420488948530E+01  0.740568239452033E-01
C    -0.141862693464448E+01 -0.192957424943134E-01 -0.819243535579138E-01
C    -0.725872742405202E+00 -0.120428510874206E+01 -0.178173940100835E+00
C     0.718067983031376E+00 -0.127809026609507E+01  0.758611232720303E-01
H     0.248582110249859E+01 -0.904264990491508E-01 -0.300880873217385E-02
H     0.129950975313492E+01  0.211789894225029E+01 -0.133563900281147E+00
H    -0.118248256005379E+01  0.219180016693126E+01  0.328802781247915E+00
H    -0.245498250650059E+01  0.642207346107506E-01 -0.205502325941452E+00
H    -0.123513526666512E+01 -0.220069760635979E+01 -0.134897672215379E+00
H     0.129290465994832E+01 -0.222828537529895E+01  0.849698170491938E-01
        12
 C6H6 mdstep=          25
C     0.138618818800534E+01 -0.897937437386033E-01  0.725878251361047E-01
C     0.710908485922709E+00  0.127886071995174E+01  0.510081734012018E-01
C    -0.676281709457712E+00  0.131500667780855E+01  0.760106430352732E-01
C    -0.142243257145340E+01 -0.209923619531418E-01 -0.913459418355901E-01
C    -0.721624207212179E+00 -0.119334601494303E+01 -0.179220360646521E+00
C     0.704828799593437E+00 -0.127165962146085E+01  0.716564684361684E-01
H     0.250004499208829E+01 -0.881237450502048E-01  0.432226425043382E-02
H     0.128360548638515E+01  0.210638582448377E+01 -0.124064852087772E+00
H    -0.116189111864520E+01  0.216017503576111E+01  0.338476812375292E+00
H    -0.243665466558599E+01  0.525741653137648E-01 -0.188722555554417E+00
H    -0.122980972897851E+01 -0.220425635145352E+01 -0.115859395401793E+00
H     0.126412481296615E+01 -0.224215454954456E+01  0.775441782883096E-01
        12
 C6H6 mdstep=          26
C     0.138989895612123E+01 -0.773993813181221E-01  0.786488178604178E-01
C     0.718509222590291E+00  0.126413522151019E+01  0.516009445439720E-01
C    -0.674693384712127E+00  0.130348851554458E+01  0.776943589663795E-01
C    -0.142388618116660E+01 -0.215463194691780E-01 -0.999143451285729E-01
C    -0.718597432551970E+00 -0.118522774472736E+01 -0.178530995718135E+00
C     0.693320969546870E+00 -0.126570913961733E+01  0.669049868899095E-01
H     0.249617476342815E+01 -0.839923951403435E-01  0.158066407663457E-01
H     0.127966531826179E+01  0.210901288999376E+01 -0.110884864294146E+00
H    -0.115894025260686E+01  0.214955990344314E+01  0.346015698448715E+00
H    -0.243704972626586E+01  0.417526614836415E-01 -0.173848729220524E+00
H    -0.122032797529755E+01 -0.218812747477986E+01 -0.106321120039371E+00
H     0.122456309330034E+01 -0.223961907185316E+01  0.720870927842845E-01
        12
 C6H6 mdstep=          27
C     0.139474106786709E+01 -0.651068710850039E-01  0.836694306462831E-01
C     0.724730997752624E+00  0.124800637468105E+01  0.518637436028825E-01
C    -0.672065747716452E+00  0.128990975680472E+01  0.790723839032820E-01
C    -0.142307468078111E+01 -0.206824384704806E-01 -0.107543045724540E+00
C    -0.716631717278815E+00 -0.117986177730202E+01 -0.176329732896680E+00
C     0.683562249604390E+00 -0.126003365977171E+01  0.617065468717871E-01
H     0.247764459436550E+01 -0.784412023361733E-01  0.308925319286080E-01
H     0.128540392105779E+01  0.212257563044183E+01 -0.938910198620988E-01
H    -0.117130495266646E+01  0.215787340726105E+01  0.351405106078805E+00
H    -0.245707093930312E+01  0.321915310776335E-01 -0.161142880887968E+00
H    -0.120869368265823E+01 -0.215661848797052E+01 -0.105921846199140E+00
H     0.117814593410694E+01 -0.222333690000034E+01  0.687553233195268E-01
        12
 C6H6 mdstep=          28
C     0.139993689929465E+01 -0.535002809275758E-01  0.876093099594886E-01
C     0.729799439742644E+00  0.123200768649667E+01  0.518002000181973E-01
C    -0.669271815620370E+00  0.127574740158171E+01  0.803283704085865E-01
C    -0.142105661712506E+01 -0.181295495195098E-01 -0.114034815150957E+00
C    -0.715545347525601E+00 -0.117681388989113E+01 -0.172976397164457E+00
C     0.675571917982177E+00 -0.125433854099016E+01  0.563099229144157E-01
H     0.245329223271167E+01 -0.721322334272215E-01  0.483226093999499E-01
H     0.129455934528481E+01  0.213762156803376E+01 -0.727685656300052E-01
H    -0.118961621896637E+01  0.217180775043571E+01  0.351350791922045E+00
H    -0.248474846975099E+01  0.237686459578656E-01 -0.150427866986185E+00
H    -0.119893176261981E+01 -0.211937988083752E+01 -0.113544806747883E+00
H     0.113218396463691E+01 -0.220094483443312E+01  0.677139504075578E-01
        12
 C6H6 mdstep=          29
C     0.140448722103836E+01 -0.431186302069998E-01  0.904964325074821E-01
C     0.733897066393236E+00  0.121764197087385E+01  0.514820497578100E-01
C    -0.667125687658060E+00  0.126242333553009E+01  0.815845831769983E-01
C    -0.141902087158532E+01 -0.138269416526748E-01 -0.119230228334330E+00
C    -0.715054740516250E+00 -0.117520865295780E+01 -0.168928570685437E+00
C     0.669152056892574E+00 -0.124819070450932E+01  0.509888908216499E-01
H     0.243518977038308E+01 -0.659114357870974E-01  0.666190863137426E-01
H     0.130158310511234E+01  0.214580592181338E+01 -0.481920771293833E-01
H    -0.120503330124486E+01  0.217941373472959E+01  0.343647240213187E+00
H    -0.250632683494169E+01  0.164638563006951E-01 -0.141706924713239E+00
H    -0.119594834684850E+01 -0.208901057613379E+01 -0.127201451597356E+00
H     0.109504367406275E+01 -0.218342935781379E+01  0.689808738992608E-01
        12
 C6H6 mdstep=          30
C     0.140777136811090E+01 -0.338138293571388E-01  0.925656999189163E-01
C     0.737335647564585E+00  0.120512579754411E+01  0.510261410194022E-01
C    -0.665983140682462E+00  0.125005119316889E+01  0.828817179539905E-01
C    -0.141753795422499E+01 -0.770866800062237E-02 -0.123323863707505E+00
C    -0.714787714553605E+00 -0.117395698405000E+01 -0.164393651963746E+00
C     0.663675254124357E+00 -0.124092109117915E+01  0.456734488167283E-01
H     0.243307788137761E+01 -0.602593419465974E-01  0.856261189153266E-01
H     0.130398478096802E+01  0.214366361725295E+01 -0.203133135775868E-01
H    -0.121357617273840E+01  0.217572573787250E+01  0.327974031620876E+00
H    -0.251550413086482E+01  0.102462229604095E-01 -0.134746081824429E+00
H    -0.120393190601009E+01 -0.207543793867865E+01 -0.145532114389460E+00
H     0.107114193729533E+01 -0.217935741164552E+01  0.725382388879367E-01
        12
 C6H6 mdstep=          31
C     0.140994076373698E+01 -0.250592073844586E-01  0.940744417400018E-01
C     0.740467000929173E+00  0.119381137436583E+01  0.505449305721371E-01
C    -0.665973830727298E+00  0.123782121798115E+01  0.842273011524515E-01
C    -0.141673535979781E+01  0.563751940303763E-03 -0.126650710745026E+00
C    -0.714632644910720E+00 -0.117258328654504E+01 -0.159224393292751E+00
C     0.658561331264672E+00 -0.123206489329623E+01  0.399974154427950E-01
H     0.244888907214937E+01 -0.551359070582220E-01  0.106618481989552E+00
H     0.130120316150794E+01  0.213059291218042E+01  0.119941415288216E-01
H    -0.121426336872520E+01  0.215960525087801E+01  0.303984484410369E+00
H    -0.251070417722907E+01  0.518207810283172E-02 -0.129200368569814E+00
H    -0.122384852879489E+01 -0.208021119263154E+01 -0.168977785011141E+00
H     0.106016690327333E+01 -0.218969294559812E+01  0.785321453908679E-01
        12
 C6H6 mdstep=          32
C     0.141171662537125E+01 -0.166894754821642E-01  0.951681350180295E-01
C     0.743460835523953E+00  0.118322229464247E+01  0.501845962791880E-01
C    -0.667188648246007E+00  0.122498094940312E+01  0.855199958503797E-01
C    -0.141652407144193E+01  0.112574520065293E-01 -0.129365677739092E+00